V -t * -v 1.0a5 -a 0
A -t * -n 1 -p 0 -o 0xffffffff -c 31 -a 1
A -t * -h 1 -m 2147483647 -s 0
n -t * -a 4 -s 4 -S UP -v circle -c black -i black
n -t * -a 0 -s 0 -S UP -v circle -c black -i black
n -t * -a 5 -s 5 -S UP -v circle -c black -i black
n -t * -a 1 -s 1 -S UP -v circle -c black -i black
n -t * -a 6 -s 6 -S UP -v circle -c black -i black
n -t * -a 2 -s 2 -S UP -v circle -c black -i black
n -t * -a 7 -s 7 -S UP -v circle -c black -i black
n -t * -a 3 -s 3 -S UP -v circle -c black -i black
l -t * -s 0 -d 1 -S UP -r 10000000 -D 0.01 -c black
l -t * -s 1 -d 4 -S UP -r 10000000 -D 0.01 -c black
l -t * -s 1 -d 2 -S UP -r 1500000 -D 0.01 -c black
l -t * -s 2 -d 3 -S UP -r 10000000 -D 0.01 -c black
l -t * -s 2 -d 5 -S UP -r 10000000 -D 0.01 -c black
l -t * -s 2 -d 7 -S UP -r 10000000 -D 0.01 -c black
l -t * -s 6 -d 1 -S UP -r 10000000 -D 0.01 -c black
+ -t 0 -s 0 -d 1 -p cbr -e 1000 -c 1 -i 0 -a 1 -x {0.0 3.0 0 ------- null}
- -t 0 -s 0 -d 1 -p cbr -e 1000 -c 1 -i 0 -a 1 -x {0.0 3.0 0 ------- null}
h -t 0 -s 0 -d 1 -p cbr -e 1000 -c 1 -i 0 -a 1 -x {0.0 3.0 -1 ------- null}
+ -t 0.008 -s 0 -d 1 -p cbr -e 1000 -c 1 -i 1 -a 1 -x {0.0 3.0 1 ------- null}
- -t 0.008 -s 0 -d 1 -p cbr -e 1000 -c 1 -i 1 -a 1 -x {0.0 3.0 1 ------- null}
h -t 0.008 -s 0 -d 1 -p cbr -e 1000 -c 1 -i 1 -a 1 -x {0.0 3.0 -1 ------- null}
r -t 0.0108 -s 0 -d 1 -p cbr -e 1000 -c 1 -i 0 -a 1 -x {0.0 3.0 0 ------- null}
+ -t 0.0108 -s 1 -d 2 -p cbr -e 1000 -c 1 -i 0 -a 1 -x {0.0 3.0 0 ------- null}
- -t 0.0108 -s 1 -d 2 -p cbr -e 1000 -c 1 -i 0 -a 1 -x {0.0 3.0 0 ------- null}
h -t 0.0108 -s 1 -d 2 -p cbr -e 1000 -c 1 -i 0 -a 1 -x {0.0 3.0 -1 ------- null}
+ -t 0.016 -s 0 -d 1 -p cbr -e 1000 -c 1 -i 2 -a 1 -x {0.0 3.0 2 ------- null}
- -t 0.016 -s 0 -d 1 -p cbr -e 1000 -c 1 -i 2 -a 1 -x {0.0 3.0 2 ------- null}
h -t 0.016 -s 0 -d 1 -p cbr -e 1000 -c 1 -i 2 -a 1 -x {0.0 3.0 -1 ------- null}
r -t 0.0188 -s 0 -d 1 -p cbr -e 1000 -c 1 -i 1 -a 1 -x {0.0 3.0 1 ------- null}
+ -t 0.0188 -s 1 -d 2 -p cbr -e 1000 -c 1 -i 1 -a 1 -x {0.0 3.0 1 ------- null}
- -t 0.0188 -s 1 -d 2 -p cbr -e 1000 -c 1 -i 1 -a 1 -x {0.0 3.0 1 ------- null}
h -t 0.0188 -s 1 -d 2 -p cbr -e 1000 -c 1 -i 1 -a 1 -x {0.0 3.0 -1 ------- null}
+ -t 0.024 -s 0 -d 1 -p cbr -e 1000 -c 1 -i 3 -a 1 -x {0.0 3.0 3 ------- null}
- -t 0.024 -s 0 -d 1 -p cbr -e 1000 -c 1 -i 3 -a 1 -x {0.0 3.0 3 ------- null}
h -t 0.024 -s 0 -d 1 -p cbr -e 1000 -c 1 -i 3 -a 1 -x {0.0 3.0 -1 ------- null}
r -t 0.0261333333333333 -s 1 -d 2 -p cbr -e 1000 -c 1 -i 0 -a 1 -x {0.0 3.0 0 ------- null}
+ -t 0.0261333333333333 -s 2 -d 3 -p cbr -e 1000 -c 1 -i 0 -a 1 -x {0.0 3.0 0 ------- null}
- -t 0.0261333333333333 -s 2 -d 3 -p cbr -e 1000 -c 1 -i 0 -a 1 -x {0.0 3.0 0 ------- null}
h -t 0.0261333333333333 -s 2 -d 3 -p cbr -e 1000 -c 1 -i 0 -a 1 -x {0.0 3.0 -1 ------- null}
r -t 0.0268 -s 0 -d 1 -p cbr -e 1000 -c 1 -i 2 -a 1 -x {0.0 3.0 2 ------- null}
+ -t 0.0268 -s 1 -d 2 -p cbr -e 1000 -c 1 -i 2 -a 1 -x {0.0 3.0 2 ------- null}
- -t 0.0268 -s 1 -d 2 -p cbr -e 1000 -c 1 -i 2 -a 1 -x {0.0 3.0 2 ------- null}
h -t 0.0268 -s 1 -d 2 -p cbr -e 1000 -c 1 -i 2 -a 1 -x {0.0 3.0 -1 ------- null}
+ -t 0.032 -s 0 -d 1 -p cbr -e 1000 -c 1 -i 4 -a 1 -x {0.0 3.0 4 ------- null}
- -t 0.032 -s 0 -d 1 -p cbr -e 1000 -c 1 -i 4 -a 1 -x {0.0 3.0 4 ------- null}
h -t 0.032 -s 0 -d 1 -p cbr -e 1000 -c 1 -i 4 -a 1 -x {0.0 3.0 -1 ------- null}
r -t 0.0341333333333333 -s 1 -d 2 -p cbr -e 1000 -c 1 -i 1 -a 1 -x {0.0 3.0 1 ------- null}
+ -t 0.0341333333333333 -s 2 -d 3 -p cbr -e 1000 -c 1 -i 1 -a 1 -x {0.0 3.0 1 ------- null}
- -t 0.0341333333333333 -s 2 -d 3 -p cbr -e 1000 -c 1 -i 1 -a 1 -x {0.0 3.0 1 ------- null}
h -t 0.0341333333333333 -s 2 -d 3 -p cbr -e 1000 -c 1 -i 1 -a 1 -x {0.0 3.0 -1 ------- null}
r -t 0.0348 -s 0 -d 1 -p cbr -e 1000 -c 1 -i 3 -a 1 -x {0.0 3.0 3 ------- null}
+ -t 0.0348 -s 1 -d 2 -p cbr -e 1000 -c 1 -i 3 -a 1 -x {0.0 3.0 3 ------- null}
- -t 0.0348 -s 1 -d 2 -p cbr -e 1000 -c 1 -i 3 -a 1 -x {0.0 3.0 3 ------- null}
h -t 0.0348 -s 1 -d 2 -p cbr -e 1000 -c 1 -i 3 -a 1 -x {0.0 3.0 -1 ------- null}
r -t 0.0369333333333333 -s 2 -d 3 -p cbr -e 1000 -c 1 -i 0 -a 1 -x {0.0 3.0 0 ------- null}
+ -t 0.04 -s 0 -d 1 -p cbr -e 1000 -c 1 -i 5 -a 1 -x {0.0 3.0 5 ------- null}
- -t 0.04 -s 0 -d 1 -p cbr -e 1000 -c 1 -i 5 -a 1 -x {0.0 3.0 5 ------- null}
h -t 0.04 -s 0 -d 1 -p cbr -e 1000 -c 1 -i 5 -a 1 -x {0.0 3.0 -1 ------- null}
r -t 0.0421333333333333 -s 1 -d 2 -p cbr -e 1000 -c 1 -i 2 -a 1 -x {0.0 3.0 2 ------- null}
+ -t 0.0421333333333333 -s 2 -d 3 -p cbr -e 1000 -c 1 -i 2 -a 1 -x {0.0 3.0 2 ------- null}
- -t 0.0421333333333333 -s 2 -d 3 -p cbr -e 1000 -c 1 -i 2 -a 1 -x {0.0 3.0 2 ------- null}
h -t 0.0421333333333333 -s 2 -d 3 -p cbr -e 1000 -c 1 -i 2 -a 1 -x {0.0 3.0 -1 ------- null}
r -t 0.0428 -s 0 -d 1 -p cbr -e 1000 -c 1 -i 4 -a 1 -x {0.0 3.0 4 ------- null}
+ -t 0.0428 -s 1 -d 2 -p cbr -e 1000 -c 1 -i 4 -a 1 -x {0.0 3.0 4 ------- null}
- -t 0.0428 -s 1 -d 2 -p cbr -e 1000 -c 1 -i 4 -a 1 -x {0.0 3.0 4 ------- null}
h -t 0.0428 -s 1 -d 2 -p cbr -e 1000 -c 1 -i 4 -a 1 -x {0.0 3.0 -1 ------- null}
r -t 0.0449333333333333 -s 2 -d 3 -p cbr -e 1000 -c 1 -i 1 -a 1 -x {0.0 3.0 1 ------- null}
+ -t 0.048 -s 0 -d 1 -p cbr -e 1000 -c 1 -i 6 -a 1 -x {0.0 3.0 6 ------- null}
- -t 0.048 -s 0 -d 1 -p cbr -e 1000 -c 1 -i 6 -a 1 -x {0.0 3.0 6 ------- null}
h -t 0.048 -s 0 -d 1 -p cbr -e 1000 -c 1 -i 6 -a 1 -x {0.0 3.0 -1 ------- null}
r -t 0.0501333333333333 -s 1 -d 2 -p cbr -e 1000 -c 1 -i 3 -a 1 -x {0.0 3.0 3 ------- null}
+ -t 0.0501333333333333 -s 2 -d 3 -p cbr -e 1000 -c 1 -i 3 -a 1 -x {0.0 3.0 3 ------- null}
- -t 0.0501333333333333 -s 2 -d 3 -p cbr -e 1000 -c 1 -i 3 -a 1 -x {0.0 3.0 3 ------- null}
h -t 0.0501333333333333 -s 2 -d 3 -p cbr -e 1000 -c 1 -i 3 -a 1 -x {0.0 3.0 -1 ------- null}
r -t 0.0508 -s 0 -d 1 -p cbr -e 1000 -c 1 -i 5 -a 1 -x {0.0 3.0 5 ------- null}
+ -t 0.0508 -s 1 -d 2 -p cbr -e 1000 -c 1 -i 5 -a 1 -x {0.0 3.0 5 ------- null}
- -t 0.0508 -s 1 -d 2 -p cbr -e 1000 -c 1 -i 5 -a 1 -x {0.0 3.0 5 ------- null}
h -t 0.0508 -s 1 -d 2 -p cbr -e 1000 -c 1 -i 5 -a 1 -x {0.0 3.0 -1 ------- null}
r -t 0.0529333333333333 -s 2 -d 3 -p cbr -e 1000 -c 1 -i 2 -a 1 -x {0.0 3.0 2 ------- null}
+ -t 0.056 -s 0 -d 1 -p cbr -e 1000 -c 1 -i 7 -a 1 -x {0.0 3.0 7 ------- null}
- -t 0.056 -s 0 -d 1 -p cbr -e 1000 -c 1 -i 7 -a 1 -x {0.0 3.0 7 ------- null}
h -t 0.056 -s 0 -d 1 -p cbr -e 1000 -c 1 -i 7 -a 1 -x {0.0 3.0 -1 ------- null}
r -t 0.0581333333333333 -s 1 -d 2 -p cbr -e 1000 -c 1 -i 4 -a 1 -x {0.0 3.0 4 ------- null}
+ -t 0.0581333333333333 -s 2 -d 3 -p cbr -e 1000 -c 1 -i 4 -a 1 -x {0.0 3.0 4 ------- null}
- -t 0.0581333333333333 -s 2 -d 3 -p cbr -e 1000 -c 1 -i 4 -a 1 -x {0.0 3.0 4 ------- null}
h -t 0.0581333333333333 -s 2 -d 3 -p cbr -e 1000 -c 1 -i 4 -a 1 -x {0.0 3.0 -1 ------- null}
r -t 0.0588 -s 0 -d 1 -p cbr -e 1000 -c 1 -i 6 -a 1 -x {0.0 3.0 6 ------- null}
+ -t 0.0588 -s 1 -d 2 -p cbr -e 1000 -c 1 -i 6 -a 1 -x {0.0 3.0 6 ------- null}
- -t 0.0588 -s 1 -d 2 -p cbr -e 1000 -c 1 -i 6 -a 1 -x {0.0 3.0 6 ------- null}
h -t 0.0588 -s 1 -d 2 -p cbr -e 1000 -c 1 -i 6 -a 1 -x {0.0 3.0 -1 ------- null}
r -t 0.0609333333333333 -s 2 -d 3 -p cbr -e 1000 -c 1 -i 3 -a 1 -x {0.0 3.0 3 ------- null}
+ -t 0.064 -s 0 -d 1 -p cbr -e 1000 -c 1 -i 8 -a 1 -x {0.0 3.0 8 ------- null}
- -t 0.064 -s 0 -d 1 -p cbr -e 1000 -c 1 -i 8 -a 1 -x {0.0 3.0 8 ------- null}
h -t 0.064 -s 0 -d 1 -p cbr -e 1000 -c 1 -i 8 -a 1 -x {0.0 3.0 -1 ------- null}
r -t 0.0661333333333333 -s 1 -d 2 -p cbr -e 1000 -c 1 -i 5 -a 1 -x {0.0 3.0 5 ------- null}
+ -t 0.0661333333333333 -s 2 -d 3 -p cbr -e 1000 -c 1 -i 5 -a 1 -x {0.0 3.0 5 ------- null}
- -t 0.0661333333333333 -s 2 -d 3 -p cbr -e 1000 -c 1 -i 5 -a 1 -x {0.0 3.0 5 ------- null}
h -t 0.0661333333333333 -s 2 -d 3 -p cbr -e 1000 -c 1 -i 5 -a 1 -x {0.0 3.0 -1 ------- null}
r -t 0.0668 -s 0 -d 1 -p cbr -e 1000 -c 1 -i 7 -a 1 -x {0.0 3.0 7 ------- null}
+ -t 0.0668 -s 1 -d 2 -p cbr -e 1000 -c 1 -i 7 -a 1 -x {0.0 3.0 7 ------- null}
- -t 0.0668 -s 1 -d 2 -p cbr -e 1000 -c 1 -i 7 -a 1 -x {0.0 3.0 7 ------- null}
h -t 0.0668 -s 1 -d 2 -p cbr -e 1000 -c 1 -i 7 -a 1 -x {0.0 3.0 -1 ------- null}
r -t 0.0689333333333333 -s 2 -d 3 -p cbr -e 1000 -c 1 -i 4 -a 1 -x {0.0 3.0 4 ------- null}
+ -t 0.072 -s 0 -d 1 -p cbr -e 1000 -c 1 -i 9 -a 1 -x {0.0 3.0 9 ------- null}
- -t 0.072 -s 0 -d 1 -p cbr -e 1000 -c 1 -i 9 -a 1 -x {0.0 3.0 9 ------- null}
h -t 0.072 -s 0 -d 1 -p cbr -e 1000 -c 1 -i 9 -a 1 -x {0.0 3.0 -1 ------- null}
r -t 0.0741333333333333 -s 1 -d 2 -p cbr -e 1000 -c 1 -i 6 -a 1 -x {0.0 3.0 6 ------- null}
+ -t 0.0741333333333333 -s 2 -d 3 -p cbr -e 1000 -c 1 -i 6 -a 1 -x {0.0 3.0 6 ------- null}
- -t 0.0741333333333333 -s 2 -d 3 -p cbr -e 1000 -c 1 -i 6 -a 1 -x {0.0 3.0 6 ------- null}
h -t 0.0741333333333333 -s 2 -d 3 -p cbr -e 1000 -c 1 -i 6 -a 1 -x {0.0 3.0 -1 ------- null}
r -t 0.0748 -s 0 -d 1 -p cbr -e 1000 -c 1 -i 8 -a 1 -x {0.0 3.0 8 ------- null}
+ -t 0.0748 -s 1 -d 2 -p cbr -e 1000 -c 1 -i 8 -a 1 -x {0.0 3.0 8 ------- null}
- -t 0.0748 -s 1 -d 2 -p cbr -e 1000 -c 1 -i 8 -a 1 -x {0.0 3.0 8 ------- null}
h -t 0.0748 -s 1 -d 2 -p cbr -e 1000 -c 1 -i 8 -a 1 -x {0.0 3.0 -1 ------- null}
r -t 0.0769333333333333 -s 2 -d 3 -p cbr -e 1000 -c 1 -i 5 -a 1 -x {0.0 3.0 5 ------- null}
+ -t 0.08 -s 0 -d 1 -p cbr -e 1000 -c 1 -i 10 -a 1 -x {0.0 3.0 10 ------- null}
- -t 0.08 -s 0 -d 1 -p cbr -e 1000 -c 1 -i 10 -a 1 -x {0.0 3.0 10 ------- null}
h -t 0.08 -s 0 -d 1 -p cbr -e 1000 -c 1 -i 10 -a 1 -x {0.0 3.0 -1 ------- null}
r -t 0.0821333333333333 -s 1 -d 2 -p cbr -e 1000 -c 1 -i 7 -a 1 -x {0.0 3.0 7 ------- null}
+ -t 0.0821333333333333 -s 2 -d 3 -p cbr -e 1000 -c 1 -i 7 -a 1 -x {0.0 3.0 7 ------- null}
- -t 0.0821333333333333 -s 2 -d 3 -p cbr -e 1000 -c 1 -i 7 -a 1 -x {0.0 3.0 7 ------- null}
h -t 0.0821333333333333 -s 2 -d 3 -p cbr -e 1000 -c 1 -i 7 -a 1 -x {0.0 3.0 -1 ------- null}
r -t 0.0828 -s 0 -d 1 -p cbr -e 1000 -c 1 -i 9 -a 1 -x {0.0 3.0 9 ------- null}
+ -t 0.0828 -s 1 -d 2 -p cbr -e 1000 -c 1 -i 9 -a 1 -x {0.0 3.0 9 ------- null}
- -t 0.0828 -s 1 -d 2 -p cbr -e 1000 -c 1 -i 9 -a 1 -x {0.0 3.0 9 ------- null}
h -t 0.0828 -s 1 -d 2 -p cbr -e 1000 -c 1 -i 9 -a 1 -x {0.0 3.0 -1 ------- null}
r -t 0.0849333333333333 -s 2 -d 3 -p cbr -e 1000 -c 1 -i 6 -a 1 -x {0.0 3.0 6 ------- null}
+ -t 0.088 -s 0 -d 1 -p cbr -e 1000 -c 1 -i 11 -a 1 -x {0.0 3.0 11 ------- null}
- -t 0.088 -s 0 -d 1 -p cbr -e 1000 -c 1 -i 11 -a 1 -x {0.0 3.0 11 ------- null}
h -t 0.088 -s 0 -d 1 -p cbr -e 1000 -c 1 -i 11 -a 1 -x {0.0 3.0 -1 ------- null}
r -t 0.0901333333333333 -s 1 -d 2 -p cbr -e 1000 -c 1 -i 8 -a 1 -x {0.0 3.0 8 ------- null}
+ -t 0.0901333333333333 -s 2 -d 3 -p cbr -e 1000 -c 1 -i 8 -a 1 -x {0.0 3.0 8 ------- null}
- -t 0.0901333333333333 -s 2 -d 3 -p cbr -e 1000 -c 1 -i 8 -a 1 -x {0.0 3.0 8 ------- null}
h -t 0.0901333333333333 -s 2 -d 3 -p cbr -e 1000 -c 1 -i 8 -a 1 -x {0.0 3.0 -1 ------- null}
r -t 0.0908 -s 0 -d 1 -p cbr -e 1000 -c 1 -i 10 -a 1 -x {0.0 3.0 10 ------- null}
+ -t 0.0908 -s 1 -d 2 -p cbr -e 1000 -c 1 -i 10 -a 1 -x {0.0 3.0 10 ------- null}
- -t 0.0908 -s 1 -d 2 -p cbr -e 1000 -c 1 -i 10 -a 1 -x {0.0 3.0 10 ------- null}
h -t 0.0908 -s 1 -d 2 -p cbr -e 1000 -c 1 -i 10 -a 1 -x {0.0 3.0 -1 ------- null}
r -t 0.0929333333333333 -s 2 -d 3 -p cbr -e 1000 -c 1 -i 7 -a 1 -x {0.0 3.0 7 ------- null}
+ -t 0.096 -s 0 -d 1 -p cbr -e 1000 -c 1 -i 12 -a 1 -x {0.0 3.0 12 ------- null}
- -t 0.096 -s 0 -d 1 -p cbr -e 1000 -c 1 -i 12 -a 1 -x {0.0 3.0 12 ------- null}
h -t 0.096 -s 0 -d 1 -p cbr -e 1000 -c 1 -i 12 -a 1 -x {0.0 3.0 -1 ------- null}
r -t 0.0981333333333334 -s 1 -d 2 -p cbr -e 1000 -c 1 -i 9 -a 1 -x {0.0 3.0 9 ------- null}
+ -t 0.0981333333333334 -s 2 -d 3 -p cbr -e 1000 -c 1 -i 9 -a 1 -x {0.0 3.0 9 ------- null}
- -t 0.0981333333333334 -s 2 -d 3 -p cbr -e 1000 -c 1 -i 9 -a 1 -x {0.0 3.0 9 ------- null}
h -t 0.0981333333333334 -s 2 -d 3 -p cbr -e 1000 -c 1 -i 9 -a 1 -x {0.0 3.0 -1 ------- null}
r -t 0.0988 -s 0 -d 1 -p cbr -e 1000 -c 1 -i 11 -a 1 -x {0.0 3.0 11 ------- null}
+ -t 0.0988 -s 1 -d 2 -p cbr -e 1000 -c 1 -i 11 -a 1 -x {0.0 3.0 11 ------- null}
- -t 0.0988 -s 1 -d 2 -p cbr -e 1000 -c 1 -i 11 -a 1 -x {0.0 3.0 11 ------- null}
h -t 0.0988 -s 1 -d 2 -p cbr -e 1000 -c 1 -i 11 -a 1 -x {0.0 3.0 -1 ------- null}
+ -t 0.1 -s 6 -d 1 -p cbr -e 1000 -c 2 -i 13 -a 2 -x {6.0 7.0 0 ------- null}
- -t 0.1 -s 6 -d 1 -p cbr -e 1000 -c 2 -i 13 -a 2 -x {6.0 7.0 0 ------- null}
h -t 0.1 -s 6 -d 1 -p cbr -e 1000 -c 2 -i 13 -a 2 -x {6.0 7.0 -1 ------- null}
r -t 0.100933333333333 -s 2 -d 3 -p cbr -e 1000 -c 1 -i 8 -a 1 -x {0.0 3.0 8 ------- null}
+ -t 0.104 -s 0 -d 1 -p cbr -e 1000 -c 1 -i 14 -a 1 -x {0.0 3.0 13 ------- null}
- -t 0.104 -s 0 -d 1 -p cbr -e 1000 -c 1 -i 14 -a 1 -x {0.0 3.0 13 ------- null}
h -t 0.104 -s 0 -d 1 -p cbr -e 1000 -c 1 -i 14 -a 1 -x {0.0 3.0 -1 ------- null}
r -t 0.106133333333333 -s 1 -d 2 -p cbr -e 1000 -c 1 -i 10 -a 1 -x {0.0 3.0 10 ------- null}
+ -t 0.106133333333333 -s 2 -d 3 -p cbr -e 1000 -c 1 -i 10 -a 1 -x {0.0 3.0 10 ------- null}
- -t 0.106133333333333 -s 2 -d 3 -p cbr -e 1000 -c 1 -i 10 -a 1 -x {0.0 3.0 10 ------- null}
h -t 0.106133333333333 -s 2 -d 3 -p cbr -e 1000 -c 1 -i 10 -a 1 -x {0.0 3.0 -1 ------- null}
r -t 0.1068 -s 0 -d 1 -p cbr -e 1000 -c 1 -i 12 -a 1 -x {0.0 3.0 12 ------- null}
+ -t 0.1068 -s 1 -d 2 -p cbr -e 1000 -c 1 -i 12 -a 1 -x {0.0 3.0 12 ------- null}
- -t 0.1068 -s 1 -d 2 -p cbr -e 1000 -c 1 -i 12 -a 1 -x {0.0 3.0 12 ------- null}
h -t 0.1068 -s 1 -d 2 -p cbr -e 1000 -c 1 -i 12 -a 1 -x {0.0 3.0 -1 ------- null}
+ -t 0.108 -s 6 -d 1 -p cbr -e 1000 -c 2 -i 15 -a 2 -x {6.0 7.0 1 ------- null}
- -t 0.108 -s 6 -d 1 -p cbr -e 1000 -c 2 -i 15 -a 2 -x {6.0 7.0 1 ------- null}
h -t 0.108 -s 6 -d 1 -p cbr -e 1000 -c 2 -i 15 -a 2 -x {6.0 7.0 -1 ------- null}
r -t 0.108933333333333 -s 2 -d 3 -p cbr -e 1000 -c 1 -i 9 -a 1 -x {0.0 3.0 9 ------- null}
r -t 0.1108 -s 6 -d 1 -p cbr -e 1000 -c 2 -i 13 -a 2 -x {6.0 7.0 0 ------- null}
+ -t 0.1108 -s 1 -d 2 -p cbr -e 1000 -c 2 -i 13 -a 2 -x {6.0 7.0 0 ------- null}
+ -t 0.112 -s 0 -d 1 -p cbr -e 1000 -c 1 -i 16 -a 1 -x {0.0 3.0 14 ------- null}
- -t 0.112 -s 0 -d 1 -p cbr -e 1000 -c 1 -i 16 -a 1 -x {0.0 3.0 14 ------- null}
h -t 0.112 -s 0 -d 1 -p cbr -e 1000 -c 1 -i 16 -a 1 -x {0.0 3.0 -1 ------- null}
- -t 0.112133333333333 -s 1 -d 2 -p cbr -e 1000 -c 2 -i 13 -a 2 -x {6.0 7.0 0 ------- null}
h -t 0.112133333333333 -s 1 -d 2 -p cbr -e 1000 -c 2 -i 13 -a 2 -x {6.0 7.0 -1 ------- null}
r -t 0.114133333333333 -s 1 -d 2 -p cbr -e 1000 -c 1 -i 11 -a 1 -x {0.0 3.0 11 ------- null}
+ -t 0.114133333333333 -s 2 -d 3 -p cbr -e 1000 -c 1 -i 11 -a 1 -x {0.0 3.0 11 ------- null}
- -t 0.114133333333333 -s 2 -d 3 -p cbr -e 1000 -c 1 -i 11 -a 1 -x {0.0 3.0 11 ------- null}
h -t 0.114133333333333 -s 2 -d 3 -p cbr -e 1000 -c 1 -i 11 -a 1 -x {0.0 3.0 -1 ------- null}
r -t 0.1148 -s 0 -d 1 -p cbr -e 1000 -c 1 -i 14 -a 1 -x {0.0 3.0 13 ------- null}
+ -t 0.1148 -s 1 -d 2 -p cbr -e 1000 -c 1 -i 14 -a 1 -x {0.0 3.0 13 ------- null}
+ -t 0.116 -s 6 -d 1 -p cbr -e 1000 -c 2 -i 17 -a 2 -x {6.0 7.0 2 ------- null}
- -t 0.116 -s 6 -d 1 -p cbr -e 1000 -c 2 -i 17 -a 2 -x {6.0 7.0 2 ------- null}
h -t 0.116 -s 6 -d 1 -p cbr -e 1000 -c 2 -i 17 -a 2 -x {6.0 7.0 -1 ------- null}
r -t 0.116933333333333 -s 2 -d 3 -p cbr -e 1000 -c 1 -i 10 -a 1 -x {0.0 3.0 10 ------- null}
- -t 0.117466666666667 -s 1 -d 2 -p cbr -e 1000 -c 1 -i 14 -a 1 -x {0.0 3.0 13 ------- null}
h -t 0.117466666666667 -s 1 -d 2 -p cbr -e 1000 -c 1 -i 14 -a 1 -x {0.0 3.0 -1 ------- null}
r -t 0.1188 -s 6 -d 1 -p cbr -e 1000 -c 2 -i 15 -a 2 -x {6.0 7.0 1 ------- null}
+ -t 0.1188 -s 1 -d 2 -p cbr -e 1000 -c 2 -i 15 -a 2 -x {6.0 7.0 1 ------- null}
+ -t 0.12 -s 0 -d 1 -p cbr -e 1000 -c 1 -i 18 -a 1 -x {0.0 3.0 15 ------- null}
- -t 0.12 -s 0 -d 1 -p cbr -e 1000 -c 1 -i 18 -a 1 -x {0.0 3.0 15 ------- null}
h -t 0.12 -s 0 -d 1 -p cbr -e 1000 -c 1 -i 18 -a 1 -x {0.0 3.0 -1 ------- null}
r -t 0.122133333333333 -s 1 -d 2 -p cbr -e 1000 -c 1 -i 12 -a 1 -x {0.0 3.0 12 ------- null}
+ -t 0.122133333333333 -s 2 -d 3 -p cbr -e 1000 -c 1 -i 12 -a 1 -x {0.0 3.0 12 ------- null}
- -t 0.122133333333333 -s 2 -d 3 -p cbr -e 1000 -c 1 -i 12 -a 1 -x {0.0 3.0 12 ------- null}
h -t 0.122133333333333 -s 2 -d 3 -p cbr -e 1000 -c 1 -i 12 -a 1 -x {0.0 3.0 -1 ------- null}
- -t 0.1228 -s 1 -d 2 -p cbr -e 1000 -c 2 -i 15 -a 2 -x {6.0 7.0 1 ------- null}
h -t 0.1228 -s 1 -d 2 -p cbr -e 1000 -c 2 -i 15 -a 2 -x {6.0 7.0 -1 ------- null}
r -t 0.1228 -s 0 -d 1 -p cbr -e 1000 -c 1 -i 16 -a 1 -x {0.0 3.0 14 ------- null}
+ -t 0.1228 -s 1 -d 2 -p cbr -e 1000 -c 1 -i 16 -a 1 -x {0.0 3.0 14 ------- null}
+ -t 0.124 -s 6 -d 1 -p cbr -e 1000 -c 2 -i 19 -a 2 -x {6.0 7.0 3 ------- null}
- -t 0.124 -s 6 -d 1 -p cbr -e 1000 -c 2 -i 19 -a 2 -x {6.0 7.0 3 ------- null}
h -t 0.124 -s 6 -d 1 -p cbr -e 1000 -c 2 -i 19 -a 2 -x {6.0 7.0 -1 ------- null}
r -t 0.124933333333333 -s 2 -d 3 -p cbr -e 1000 -c 1 -i 11 -a 1 -x {0.0 3.0 11 ------- null}
r -t 0.1268 -s 6 -d 1 -p cbr -e 1000 -c 2 -i 17 -a 2 -x {6.0 7.0 2 ------- null}
+ -t 0.1268 -s 1 -d 2 -p cbr -e 1000 -c 2 -i 17 -a 2 -x {6.0 7.0 2 ------- null}
r -t 0.127466666666667 -s 1 -d 2 -p cbr -e 1000 -c 2 -i 13 -a 2 -x {6.0 7.0 0 ------- null}
+ -t 0.127466666666667 -s 2 -d 7 -p cbr -e 1000 -c 2 -i 13 -a 2 -x {6.0 7.0 0 ------- null}
- -t 0.127466666666667 -s 2 -d 7 -p cbr -e 1000 -c 2 -i 13 -a 2 -x {6.0 7.0 0 ------- null}
h -t 0.127466666666667 -s 2 -d 7 -p cbr -e 1000 -c 2 -i 13 -a 2 -x {6.0 7.0 -1 ------- null}
+ -t 0.128 -s 0 -d 1 -p cbr -e 1000 -c 1 -i 20 -a 1 -x {0.0 3.0 16 ------- null}
- -t 0.128 -s 0 -d 1 -p cbr -e 1000 -c 1 -i 20 -a 1 -x {0.0 3.0 16 ------- null}
h -t 0.128 -s 0 -d 1 -p cbr -e 1000 -c 1 -i 20 -a 1 -x {0.0 3.0 -1 ------- null}
- -t 0.128133333333333 -s 1 -d 2 -p cbr -e 1000 -c 1 -i 16 -a 1 -x {0.0 3.0 14 ------- null}
h -t 0.128133333333333 -s 1 -d 2 -p cbr -e 1000 -c 1 -i 16 -a 1 -x {0.0 3.0 -1 ------- null}
r -t 0.1308 -s 0 -d 1 -p cbr -e 1000 -c 1 -i 18 -a 1 -x {0.0 3.0 15 ------- null}
+ -t 0.1308 -s 1 -d 2 -p cbr -e 1000 -c 1 -i 18 -a 1 -x {0.0 3.0 15 ------- null}
+ -t 0.132 -s 6 -d 1 -p cbr -e 1000 -c 2 -i 21 -a 2 -x {6.0 7.0 4 ------- null}
- -t 0.132 -s 6 -d 1 -p cbr -e 1000 -c 2 -i 21 -a 2 -x {6.0 7.0 4 ------- null}
h -t 0.132 -s 6 -d 1 -p cbr -e 1000 -c 2 -i 21 -a 2 -x {6.0 7.0 -1 ------- null}
r -t 0.1328 -s 1 -d 2 -p cbr -e 1000 -c 1 -i 14 -a 1 -x {0.0 3.0 13 ------- null}
+ -t 0.1328 -s 2 -d 3 -p cbr -e 1000 -c 1 -i 14 -a 1 -x {0.0 3.0 13 ------- null}
- -t 0.1328 -s 2 -d 3 -p cbr -e 1000 -c 1 -i 14 -a 1 -x {0.0 3.0 13 ------- null}
h -t 0.1328 -s 2 -d 3 -p cbr -e 1000 -c 1 -i 14 -a 1 -x {0.0 3.0 -1 ------- null}
r -t 0.132933333333333 -s 2 -d 3 -p cbr -e 1000 -c 1 -i 12 -a 1 -x {0.0 3.0 12 ------- null}
- -t 0.133466666666667 -s 1 -d 2 -p cbr -e 1000 -c 2 -i 17 -a 2 -x {6.0 7.0 2 ------- null}
h -t 0.133466666666667 -s 1 -d 2 -p cbr -e 1000 -c 2 -i 17 -a 2 -x {6.0 7.0 -1 ------- null}
r -t 0.1348 -s 6 -d 1 -p cbr -e 1000 -c 2 -i 19 -a 2 -x {6.0 7.0 3 ------- null}
+ -t 0.1348 -s 1 -d 2 -p cbr -e 1000 -c 2 -i 19 -a 2 -x {6.0 7.0 3 ------- null}
+ -t 0.136 -s 0 -d 1 -p cbr -e 1000 -c 1 -i 22 -a 1 -x {0.0 3.0 17 ------- null}
- -t 0.136 -s 0 -d 1 -p cbr -e 1000 -c 1 -i 22 -a 1 -x {0.0 3.0 17 ------- null}
h -t 0.136 -s 0 -d 1 -p cbr -e 1000 -c 1 -i 22 -a 1 -x {0.0 3.0 -1 ------- null}
r -t 0.138133333333333 -s 1 -d 2 -p cbr -e 1000 -c 2 -i 15 -a 2 -x {6.0 7.0 1 ------- null}
+ -t 0.138133333333333 -s 2 -d 7 -p cbr -e 1000 -c 2 -i 15 -a 2 -x {6.0 7.0 1 ------- null}
- -t 0.138133333333333 -s 2 -d 7 -p cbr -e 1000 -c 2 -i 15 -a 2 -x {6.0 7.0 1 ------- null}
h -t 0.138133333333333 -s 2 -d 7 -p cbr -e 1000 -c 2 -i 15 -a 2 -x {6.0 7.0 -1 ------- null}
r -t 0.138266666666667 -s 2 -d 7 -p cbr -e 1000 -c 2 -i 13 -a 2 -x {6.0 7.0 0 ------- null}
- -t 0.1388 -s 1 -d 2 -p cbr -e 1000 -c 1 -i 18 -a 1 -x {0.0 3.0 15 ------- null}
h -t 0.1388 -s 1 -d 2 -p cbr -e 1000 -c 1 -i 18 -a 1 -x {0.0 3.0 -1 ------- null}
r -t 0.1388 -s 0 -d 1 -p cbr -e 1000 -c 1 -i 20 -a 1 -x {0.0 3.0 16 ------- null}
+ -t 0.1388 -s 1 -d 2 -p cbr -e 1000 -c 1 -i 20 -a 1 -x {0.0 3.0 16 ------- null}
+ -t 0.14 -s 6 -d 1 -p cbr -e 1000 -c 2 -i 23 -a 2 -x {6.0 7.0 5 ------- null}
- -t 0.14 -s 6 -d 1 -p cbr -e 1000 -c 2 -i 23 -a 2 -x {6.0 7.0 5 ------- null}
h -t 0.14 -s 6 -d 1 -p cbr -e 1000 -c 2 -i 23 -a 2 -x {6.0 7.0 -1 ------- null}
r -t 0.1428 -s 6 -d 1 -p cbr -e 1000 -c 2 -i 21 -a 2 -x {6.0 7.0 4 ------- null}
+ -t 0.1428 -s 1 -d 2 -p cbr -e 1000 -c 2 -i 21 -a 2 -x {6.0 7.0 4 ------- null}
r -t 0.143466666666667 -s 1 -d 2 -p cbr -e 1000 -c 1 -i 16 -a 1 -x {0.0 3.0 14 ------- null}
+ -t 0.143466666666667 -s 2 -d 3 -p cbr -e 1000 -c 1 -i 16 -a 1 -x {0.0 3.0 14 ------- null}
- -t 0.143466666666667 -s 2 -d 3 -p cbr -e 1000 -c 1 -i 16 -a 1 -x {0.0 3.0 14 ------- null}
h -t 0.143466666666667 -s 2 -d 3 -p cbr -e 1000 -c 1 -i 16 -a 1 -x {0.0 3.0 -1 ------- null}
r -t 0.1436 -s 2 -d 3 -p cbr -e 1000 -c 1 -i 14 -a 1 -x {0.0 3.0 13 ------- null}
+ -t 0.144 -s 0 -d 1 -p cbr -e 1000 -c 1 -i 24 -a 1 -x {0.0 3.0 18 ------- null}
- -t 0.144 -s 0 -d 1 -p cbr -e 1000 -c 1 -i 24 -a 1 -x {0.0 3.0 18 ------- null}
h -t 0.144 -s 0 -d 1 -p cbr -e 1000 -c 1 -i 24 -a 1 -x {0.0 3.0 -1 ------- null}
- -t 0.144133333333333 -s 1 -d 2 -p cbr -e 1000 -c 2 -i 19 -a 2 -x {6.0 7.0 3 ------- null}
h -t 0.144133333333333 -s 1 -d 2 -p cbr -e 1000 -c 2 -i 19 -a 2 -x {6.0 7.0 -1 ------- null}
r -t 0.1468 -s 0 -d 1 -p cbr -e 1000 -c 1 -i 22 -a 1 -x {0.0 3.0 17 ------- null}
+ -t 0.1468 -s 1 -d 2 -p cbr -e 1000 -c 1 -i 22 -a 1 -x {0.0 3.0 17 ------- null}
+ -t 0.148 -s 6 -d 1 -p cbr -e 1000 -c 2 -i 25 -a 2 -x {6.0 7.0 6 ------- null}
- -t 0.148 -s 6 -d 1 -p cbr -e 1000 -c 2 -i 25 -a 2 -x {6.0 7.0 6 ------- null}
h -t 0.148 -s 6 -d 1 -p cbr -e 1000 -c 2 -i 25 -a 2 -x {6.0 7.0 -1 ------- null}
r -t 0.1488 -s 1 -d 2 -p cbr -e 1000 -c 2 -i 17 -a 2 -x {6.0 7.0 2 ------- null}
+ -t 0.1488 -s 2 -d 7 -p cbr -e 1000 -c 2 -i 17 -a 2 -x {6.0 7.0 2 ------- null}
- -t 0.1488 -s 2 -d 7 -p cbr -e 1000 -c 2 -i 17 -a 2 -x {6.0 7.0 2 ------- null}
h -t 0.1488 -s 2 -d 7 -p cbr -e 1000 -c 2 -i 17 -a 2 -x {6.0 7.0 -1 ------- null}
r -t 0.148933333333333 -s 2 -d 7 -p cbr -e 1000 -c 2 -i 15 -a 2 -x {6.0 7.0 1 ------- null}
- -t 0.149466666666667 -s 1 -d 2 -p cbr -e 1000 -c 1 -i 20 -a 1 -x {0.0 3.0 16 ------- null}
h -t 0.149466666666667 -s 1 -d 2 -p cbr -e 1000 -c 1 -i 20 -a 1 -x {0.0 3.0 -1 ------- null}
r -t 0.1508 -s 6 -d 1 -p cbr -e 1000 -c 2 -i 23 -a 2 -x {6.0 7.0 5 ------- null}
+ -t 0.1508 -s 1 -d 2 -p cbr -e 1000 -c 2 -i 23 -a 2 -x {6.0 7.0 5 ------- null}
+ -t 0.152 -s 0 -d 1 -p cbr -e 1000 -c 1 -i 26 -a 1 -x {0.0 3.0 19 ------- null}
- -t 0.152 -s 0 -d 1 -p cbr -e 1000 -c 1 -i 26 -a 1 -x {0.0 3.0 19 ------- null}
h -t 0.152 -s 0 -d 1 -p cbr -e 1000 -c 1 -i 26 -a 1 -x {0.0 3.0 -1 ------- null}
r -t 0.154133333333333 -s 1 -d 2 -p cbr -e 1000 -c 1 -i 18 -a 1 -x {0.0 3.0 15 ------- null}
+ -t 0.154133333333333 -s 2 -d 3 -p cbr -e 1000 -c 1 -i 18 -a 1 -x {0.0 3.0 15 ------- null}
- -t 0.154133333333333 -s 2 -d 3 -p cbr -e 1000 -c 1 -i 18 -a 1 -x {0.0 3.0 15 ------- null}
h -t 0.154133333333333 -s 2 -d 3 -p cbr -e 1000 -c 1 -i 18 -a 1 -x {0.0 3.0 -1 ------- null}
r -t 0.154266666666667 -s 2 -d 3 -p cbr -e 1000 -c 1 -i 16 -a 1 -x {0.0 3.0 14 ------- null}
- -t 0.1548 -s 1 -d 2 -p cbr -e 1000 -c 2 -i 21 -a 2 -x {6.0 7.0 4 ------- null}
h -t 0.1548 -s 1 -d 2 -p cbr -e 1000 -c 2 -i 21 -a 2 -x {6.0 7.0 -1 ------- null}
r -t 0.1548 -s 0 -d 1 -p cbr -e 1000 -c 1 -i 24 -a 1 -x {0.0 3.0 18 ------- null}
+ -t 0.1548 -s 1 -d 2 -p cbr -e 1000 -c 1 -i 24 -a 1 -x {0.0 3.0 18 ------- null}
+ -t 0.156 -s 6 -d 1 -p cbr -e 1000 -c 2 -i 27 -a 2 -x {6.0 7.0 7 ------- null}
- -t 0.156 -s 6 -d 1 -p cbr -e 1000 -c 2 -i 27 -a 2 -x {6.0 7.0 7 ------- null}
h -t 0.156 -s 6 -d 1 -p cbr -e 1000 -c 2 -i 27 -a 2 -x {6.0 7.0 -1 ------- null}
r -t 0.1588 -s 6 -d 1 -p cbr -e 1000 -c 2 -i 25 -a 2 -x {6.0 7.0 6 ------- null}
+ -t 0.1588 -s 1 -d 2 -p cbr -e 1000 -c 2 -i 25 -a 2 -x {6.0 7.0 6 ------- null}
r -t 0.159466666666667 -s 1 -d 2 -p cbr -e 1000 -c 2 -i 19 -a 2 -x {6.0 7.0 3 ------- null}
+ -t 0.159466666666667 -s 2 -d 7 -p cbr -e 1000 -c 2 -i 19 -a 2 -x {6.0 7.0 3 ------- null}
- -t 0.159466666666667 -s 2 -d 7 -p cbr -e 1000 -c 2 -i 19 -a 2 -x {6.0 7.0 3 ------- null}
h -t 0.159466666666667 -s 2 -d 7 -p cbr -e 1000 -c 2 -i 19 -a 2 -x {6.0 7.0 -1 ------- null}
r -t 0.1596 -s 2 -d 7 -p cbr -e 1000 -c 2 -i 17 -a 2 -x {6.0 7.0 2 ------- null}
+ -t 0.16 -s 0 -d 1 -p cbr -e 1000 -c 1 -i 28 -a 1 -x {0.0 3.0 20 ------- null}
- -t 0.16 -s 0 -d 1 -p cbr -e 1000 -c 1 -i 28 -a 1 -x {0.0 3.0 20 ------- null}
h -t 0.16 -s 0 -d 1 -p cbr -e 1000 -c 1 -i 28 -a 1 -x {0.0 3.0 -1 ------- null}
- -t 0.160133333333333 -s 1 -d 2 -p cbr -e 1000 -c 1 -i 22 -a 1 -x {0.0 3.0 17 ------- null}
h -t 0.160133333333333 -s 1 -d 2 -p cbr -e 1000 -c 1 -i 22 -a 1 -x {0.0 3.0 -1 ------- null}
r -t 0.1628 -s 0 -d 1 -p cbr -e 1000 -c 1 -i 26 -a 1 -x {0.0 3.0 19 ------- null}
+ -t 0.1628 -s 1 -d 2 -p cbr -e 1000 -c 1 -i 26 -a 1 -x {0.0 3.0 19 ------- null}
+ -t 0.164 -s 6 -d 1 -p cbr -e 1000 -c 2 -i 29 -a 2 -x {6.0 7.0 8 ------- null}
- -t 0.164 -s 6 -d 1 -p cbr -e 1000 -c 2 -i 29 -a 2 -x {6.0 7.0 8 ------- null}
h -t 0.164 -s 6 -d 1 -p cbr -e 1000 -c 2 -i 29 -a 2 -x {6.0 7.0 -1 ------- null}
r -t 0.1648 -s 1 -d 2 -p cbr -e 1000 -c 1 -i 20 -a 1 -x {0.0 3.0 16 ------- null}
+ -t 0.1648 -s 2 -d 3 -p cbr -e 1000 -c 1 -i 20 -a 1 -x {0.0 3.0 16 ------- null}
- -t 0.1648 -s 2 -d 3 -p cbr -e 1000 -c 1 -i 20 -a 1 -x {0.0 3.0 16 ------- null}
h -t 0.1648 -s 2 -d 3 -p cbr -e 1000 -c 1 -i 20 -a 1 -x {0.0 3.0 -1 ------- null}
r -t 0.164933333333333 -s 2 -d 3 -p cbr -e 1000 -c 1 -i 18 -a 1 -x {0.0 3.0 15 ------- null}
- -t 0.165466666666667 -s 1 -d 2 -p cbr -e 1000 -c 2 -i 23 -a 2 -x {6.0 7.0 5 ------- null}
h -t 0.165466666666667 -s 1 -d 2 -p cbr -e 1000 -c 2 -i 23 -a 2 -x {6.0 7.0 -1 ------- null}
r -t 0.1668 -s 6 -d 1 -p cbr -e 1000 -c 2 -i 27 -a 2 -x {6.0 7.0 7 ------- null}
+ -t 0.1668 -s 1 -d 2 -p cbr -e 1000 -c 2 -i 27 -a 2 -x {6.0 7.0 7 ------- null}
+ -t 0.168 -s 0 -d 1 -p cbr -e 1000 -c 1 -i 30 -a 1 -x {0.0 3.0 21 ------- null}
- -t 0.168 -s 0 -d 1 -p cbr -e 1000 -c 1 -i 30 -a 1 -x {0.0 3.0 21 ------- null}
h -t 0.168 -s 0 -d 1 -p cbr -e 1000 -c 1 -i 30 -a 1 -x {0.0 3.0 -1 ------- null}
r -t 0.170133333333333 -s 1 -d 2 -p cbr -e 1000 -c 2 -i 21 -a 2 -x {6.0 7.0 4 ------- null}
+ -t 0.170133333333333 -s 2 -d 7 -p cbr -e 1000 -c 2 -i 21 -a 2 -x {6.0 7.0 4 ------- null}
- -t 0.170133333333333 -s 2 -d 7 -p cbr -e 1000 -c 2 -i 21 -a 2 -x {6.0 7.0 4 ------- null}
h -t 0.170133333333333 -s 2 -d 7 -p cbr -e 1000 -c 2 -i 21 -a 2 -x {6.0 7.0 -1 ------- null}
r -t 0.170266666666667 -s 2 -d 7 -p cbr -e 1000 -c 2 -i 19 -a 2 -x {6.0 7.0 3 ------- null}
- -t 0.1708 -s 1 -d 2 -p cbr -e 1000 -c 1 -i 24 -a 1 -x {0.0 3.0 18 ------- null}
h -t 0.1708 -s 1 -d 2 -p cbr -e 1000 -c 1 -i 24 -a 1 -x {0.0 3.0 -1 ------- null}
r -t 0.1708 -s 0 -d 1 -p cbr -e 1000 -c 1 -i 28 -a 1 -x {0.0 3.0 20 ------- null}
+ -t 0.1708 -s 1 -d 2 -p cbr -e 1000 -c 1 -i 28 -a 1 -x {0.0 3.0 20 ------- null}
+ -t 0.172 -s 6 -d 1 -p cbr -e 1000 -c 2 -i 31 -a 2 -x {6.0 7.0 9 ------- null}
- -t 0.172 -s 6 -d 1 -p cbr -e 1000 -c 2 -i 31 -a 2 -x {6.0 7.0 9 ------- null}
h -t 0.172 -s 6 -d 1 -p cbr -e 1000 -c 2 -i 31 -a 2 -x {6.0 7.0 -1 ------- null}
r -t 0.1748 -s 6 -d 1 -p cbr -e 1000 -c 2 -i 29 -a 2 -x {6.0 7.0 8 ------- null}
+ -t 0.1748 -s 1 -d 2 -p cbr -e 1000 -c 2 -i 29 -a 2 -x {6.0 7.0 8 ------- null}
r -t 0.175466666666667 -s 1 -d 2 -p cbr -e 1000 -c 1 -i 22 -a 1 -x {0.0 3.0 17 ------- null}
+ -t 0.175466666666667 -s 2 -d 3 -p cbr -e 1000 -c 1 -i 22 -a 1 -x {0.0 3.0 17 ------- null}
- -t 0.175466666666667 -s 2 -d 3 -p cbr -e 1000 -c 1 -i 22 -a 1 -x {0.0 3.0 17 ------- null}
h -t 0.175466666666667 -s 2 -d 3 -p cbr -e 1000 -c 1 -i 22 -a 1 -x {0.0 3.0 -1 ------- null}
r -t 0.1756 -s 2 -d 3 -p cbr -e 1000 -c 1 -i 20 -a 1 -x {0.0 3.0 16 ------- null}
+ -t 0.176 -s 0 -d 1 -p cbr -e 1000 -c 1 -i 32 -a 1 -x {0.0 3.0 22 ------- null}
- -t 0.176 -s 0 -d 1 -p cbr -e 1000 -c 1 -i 32 -a 1 -x {0.0 3.0 22 ------- null}
h -t 0.176 -s 0 -d 1 -p cbr -e 1000 -c 1 -i 32 -a 1 -x {0.0 3.0 -1 ------- null}
- -t 0.176133333333333 -s 1 -d 2 -p cbr -e 1000 -c 2 -i 25 -a 2 -x {6.0 7.0 6 ------- null}
h -t 0.176133333333333 -s 1 -d 2 -p cbr -e 1000 -c 2 -i 25 -a 2 -x {6.0 7.0 -1 ------- null}
r -t 0.1788 -s 0 -d 1 -p cbr -e 1000 -c 1 -i 30 -a 1 -x {0.0 3.0 21 ------- null}
+ -t 0.1788 -s 1 -d 2 -p cbr -e 1000 -c 1 -i 30 -a 1 -x {0.0 3.0 21 ------- null}
+ -t 0.18 -s 6 -d 1 -p cbr -e 1000 -c 2 -i 33 -a 2 -x {6.0 7.0 10 ------- null}
- -t 0.18 -s 6 -d 1 -p cbr -e 1000 -c 2 -i 33 -a 2 -x {6.0 7.0 10 ------- null}
h -t 0.18 -s 6 -d 1 -p cbr -e 1000 -c 2 -i 33 -a 2 -x {6.0 7.0 -1 ------- null}
r -t 0.1808 -s 1 -d 2 -p cbr -e 1000 -c 2 -i 23 -a 2 -x {6.0 7.0 5 ------- null}
+ -t 0.1808 -s 2 -d 7 -p cbr -e 1000 -c 2 -i 23 -a 2 -x {6.0 7.0 5 ------- null}
- -t 0.1808 -s 2 -d 7 -p cbr -e 1000 -c 2 -i 23 -a 2 -x {6.0 7.0 5 ------- null}
h -t 0.1808 -s 2 -d 7 -p cbr -e 1000 -c 2 -i 23 -a 2 -x {6.0 7.0 -1 ------- null}
r -t 0.180933333333333 -s 2 -d 7 -p cbr -e 1000 -c 2 -i 21 -a 2 -x {6.0 7.0 4 ------- null}
- -t 0.181466666666667 -s 1 -d 2 -p cbr -e 1000 -c 1 -i 26 -a 1 -x {0.0 3.0 19 ------- null}
h -t 0.181466666666667 -s 1 -d 2 -p cbr -e 1000 -c 1 -i 26 -a 1 -x {0.0 3.0 -1 ------- null}
r -t 0.1828 -s 6 -d 1 -p cbr -e 1000 -c 2 -i 31 -a 2 -x {6.0 7.0 9 ------- null}
+ -t 0.1828 -s 1 -d 2 -p cbr -e 1000 -c 2 -i 31 -a 2 -x {6.0 7.0 9 ------- null}
+ -t 0.184 -s 0 -d 1 -p cbr -e 1000 -c 1 -i 34 -a 1 -x {0.0 3.0 23 ------- null}
- -t 0.184 -s 0 -d 1 -p cbr -e 1000 -c 1 -i 34 -a 1 -x {0.0 3.0 23 ------- null}
h -t 0.184 -s 0 -d 1 -p cbr -e 1000 -c 1 -i 34 -a 1 -x {0.0 3.0 -1 ------- null}
r -t 0.186133333333333 -s 1 -d 2 -p cbr -e 1000 -c 1 -i 24 -a 1 -x {0.0 3.0 18 ------- null}
+ -t 0.186133333333333 -s 2 -d 3 -p cbr -e 1000 -c 1 -i 24 -a 1 -x {0.0 3.0 18 ------- null}