+ 0 1 2 cbr 1000 ------- 3 1.0 2.0 0 0
- 0 1 2 cbr 1000 ------- 3 1.0 2.0 0 0
+ 0 0 1 tcp 40 ------- 2 0.0 3.0 0 1
- 0 0 1 tcp 40 ------- 2 0.0 3.0 0 1
+ 0 4 1 tcp 40 ------- 1 4.0 5.0 0 2
- 0 4 1 tcp 40 ------- 1 4.0 5.0 0 2
+ 0.000421 1 2 cbr 1000 ------- 3 1.0 2.0 1 3
- 0.0008 1 2 cbr 1000 ------- 3 1.0 2.0 1 3
+ 0.000842 1 2 cbr 1000 ------- 3 1.0 2.0 2 4
+ 0.001263 1 2 cbr 1000 ------- 3 1.0 2.0 3 5
- 0.0016 1 2 cbr 1000 ------- 3 1.0 2.0 2 4
+ 0.001684 1 2 cbr 1000 ------- 3 1.0 2.0 4 6
+ 0.002105 1 2 cbr 1000 ------- 3 1.0 2.0 5 7
- 0.0024 1 2 cbr 1000 ------- 3 1.0 2.0 3 5
+ 0.002526 1 2 cbr 1000 ------- 3 1.0 2.0 6 8
+ 0.002947 1 2 cbr 1000 ------- 3 1.0 2.0 7 9
- 0.0032 1 2 cbr 1000 ------- 3 1.0 2.0 4 6
+ 0.003368 1 2 cbr 1000 ------- 3 1.0 2.0 8 10
+ 0.003789 1 2 cbr 1000 ------- 3 1.0 2.0 9 11
- 0.004 1 2 cbr 1000 ------- 3 1.0 2.0 5 7
+ 0.004211 1 2 cbr 1000 ------- 3 1.0 2.0 10 12
+ 0.004632 1 2 cbr 1000 ------- 3 1.0 2.0 11 13
- 0.0048 1 2 cbr 1000 ------- 3 1.0 2.0 6 8
+ 0.005053 1 2 cbr 1000 ------- 3 1.0 2.0 12 14
+ 0.005474 1 2 cbr 1000 ------- 3 1.0 2.0 13 15
- 0.0056 1 2 cbr 1000 ------- 3 1.0 2.0 7 9
+ 0.005895 1 2 cbr 1000 ------- 3 1.0 2.0 14 16
+ 0.006316 1 2 cbr 1000 ------- 3 1.0 2.0 15 17
- 0.0064 1 2 cbr 1000 ------- 3 1.0 2.0 8 10
+ 0.006737 1 2 cbr 1000 ------- 3 1.0 2.0 16 18
+ 0.007158 1 2 cbr 1000 ------- 3 1.0 2.0 17 19
- 0.0072 1 2 cbr 1000 ------- 3 1.0 2.0 9 11
+ 0.007579 1 2 cbr 1000 ------- 3 1.0 2.0 18 20
+ 0.008 1 2 cbr 1000 ------- 3 1.0 2.0 19 21
- 0.008 1 2 cbr 1000 ------- 3 1.0 2.0 10 12
+ 0.008421 1 2 cbr 1000 ------- 3 1.0 2.0 20 22
- 0.0088 1 2 cbr 1000 ------- 3 1.0 2.0 11 13
+ 0.008842 1 2 cbr 1000 ------- 3 1.0 2.0 21 23
+ 0.009263 1 2 cbr 1000 ------- 3 1.0 2.0 22 24
- 0.0096 1 2 cbr 1000 ------- 3 1.0 2.0 12 14
+ 0.009684 1 2 cbr 1000 ------- 3 1.0 2.0 23 25
r 0.010032 0 1 tcp 40 ------- 2 0.0 3.0 0 1
+ 0.010032 1 2 tcp 40 ------- 2 0.0 3.0 0 1
r 0.010032 4 1 tcp 40 ------- 1 4.0 5.0 0 2
+ 0.010032 1 2 tcp 40 ------- 1 4.0 5.0 0 2
+ 0.010105 1 2 cbr 1000 ------- 3 1.0 2.0 24 26
- 0.0104 1 2 cbr 1000 ------- 3 1.0 2.0 13 15
+ 0.010526 1 2 cbr 1000 ------- 3 1.0 2.0 25 27
r 0.0108 1 2 cbr 1000 ------- 3 1.0 2.0 0 0
+ 0.010947 1 2 cbr 1000 ------- 3 1.0 2.0 26 28
- 0.0112 1 2 cbr 1000 ------- 3 1.0 2.0 14 16
+ 0.011368 1 2 cbr 1000 ------- 3 1.0 2.0 27 29
r 0.0116 1 2 cbr 1000 ------- 3 1.0 2.0 1 3
+ 0.011789 1 2 cbr 1000 ------- 3 1.0 2.0 28 30
- 0.012 1 2 cbr 1000 ------- 3 1.0 2.0 15 17
+ 0.012211 1 2 cbr 1000 ------- 3 1.0 2.0 29 31
r 0.0124 1 2 cbr 1000 ------- 3 1.0 2.0 2 4
+ 0.012632 1 2 cbr 1000 ------- 3 1.0 2.0 30 32
- 0.0128 1 2 cbr 1000 ------- 3 1.0 2.0 16 18
+ 0.013053 1 2 cbr 1000 ------- 3 1.0 2.0 31 33
r 0.0132 1 2 cbr 1000 ------- 3 1.0 2.0 3 5
+ 0.013474 1 2 cbr 1000 ------- 3 1.0 2.0 32 34
- 0.0136 1 2 cbr 1000 ------- 3 1.0 2.0 17 19
+ 0.013895 1 2 cbr 1000 ------- 3 1.0 2.0 33 35
r 0.014 1 2 cbr 1000 ------- 3 1.0 2.0 4 6
+ 0.014316 1 2 cbr 1000 ------- 3 1.0 2.0 34 36
- 0.0144 1 2 cbr 1000 ------- 3 1.0 2.0 18 20
+ 0.014737 1 2 cbr 1000 ------- 3 1.0 2.0 35 37
r 0.0148 1 2 cbr 1000 ------- 3 1.0 2.0 5 7
+ 0.015158 1 2 cbr 1000 ------- 3 1.0 2.0 36 38
- 0.0152 1 2 cbr 1000 ------- 3 1.0 2.0 19 21
+ 0.015579 1 2 cbr 1000 ------- 3 1.0 2.0 37 39
r 0.0156 1 2 cbr 1000 ------- 3 1.0 2.0 6 8
+ 0.016 1 2 cbr 1000 ------- 3 1.0 2.0 38 40
- 0.016 1 2 cbr 1000 ------- 3 1.0 2.0 20 22
r 0.0164 1 2 cbr 1000 ------- 3 1.0 2.0 7 9
+ 0.016421 1 2 cbr 1000 ------- 3 1.0 2.0 39 41
- 0.0168 1 2 cbr 1000 ------- 3 1.0 2.0 21 23
+ 0.016842 1 2 cbr 1000 ------- 3 1.0 2.0 40 42
r 0.0172 1 2 cbr 1000 ------- 3 1.0 2.0 8 10
+ 0.017263 1 2 cbr 1000 ------- 3 1.0 2.0 41 43
- 0.0176 1 2 cbr 1000 ------- 3 1.0 2.0 22 24
+ 0.017684 1 2 cbr 1000 ------- 3 1.0 2.0 42 44
r 0.018 1 2 cbr 1000 ------- 3 1.0 2.0 9 11
+ 0.018105 1 2 cbr 1000 ------- 3 1.0 2.0 43 45
- 0.0184 1 2 cbr 1000 ------- 3 1.0 2.0 23 25
+ 0.018526 1 2 cbr 1000 ------- 3 1.0 2.0 44 46
r 0.0188 1 2 cbr 1000 ------- 3 1.0 2.0 10 12
+ 0.018947 1 2 cbr 1000 ------- 3 1.0 2.0 45 47
- 0.0192 1 2 tcp 40 ------- 2 0.0 3.0 0 1
- 0.019232 1 2 tcp 40 ------- 1 4.0 5.0 0 2
- 0.019264 1 2 cbr 1000 ------- 3 1.0 2.0 24 26
+ 0.019368 1 2 cbr 1000 ------- 3 1.0 2.0 46 48
r 0.0196 1 2 cbr 1000 ------- 3 1.0 2.0 11 13
+ 0.019789 1 2 cbr 1000 ------- 3 1.0 2.0 47 49
- 0.020064 1 2 cbr 1000 ------- 3 1.0 2.0 25 27
+ 0.020211 1 2 cbr 1000 ------- 3 1.0 2.0 48 50
r 0.0204 1 2 cbr 1000 ------- 3 1.0 2.0 12 14
+ 0.020632 1 2 cbr 1000 ------- 3 1.0 2.0 49 51
- 0.020864 1 2 cbr 1000 ------- 3 1.0 2.0 26 28
+ 0.021053 1 2 cbr 1000 ------- 3 1.0 2.0 50 52
r 0.0212 1 2 cbr 1000 ------- 3 1.0 2.0 13 15
+ 0.021474 1 2 cbr 1000 ------- 3 1.0 2.0 51 53
- 0.021664 1 2 cbr 1000 ------- 3 1.0 2.0 27 29
+ 0.021895 1 2 cbr 1000 ------- 3 1.0 2.0 52 54
r 0.022 1 2 cbr 1000 ------- 3 1.0 2.0 14 16
+ 0.022316 1 2 cbr 1000 ------- 3 1.0 2.0 53 55
- 0.022464 1 2 cbr 1000 ------- 3 1.0 2.0 28 30
+ 0.022737 1 2 cbr 1000 ------- 3 1.0 2.0 54 56
r 0.0228 1 2 cbr 1000 ------- 3 1.0 2.0 15 17
+ 0.023158 1 2 cbr 1000 ------- 3 1.0 2.0 55 57
- 0.023264 1 2 cbr 1000 ------- 3 1.0 2.0 29 31
+ 0.023579 1 2 cbr 1000 ------- 3 1.0 2.0 56 58
r 0.0236 1 2 cbr 1000 ------- 3 1.0 2.0 16 18
+ 0.024 1 2 cbr 1000 ------- 3 1.0 2.0 57 59
- 0.024064 1 2 cbr 1000 ------- 3 1.0 2.0 30 32
r 0.0244 1 2 cbr 1000 ------- 3 1.0 2.0 17 19
+ 0.024421 1 2 cbr 1000 ------- 3 1.0 2.0 58 60
+ 0.024842 1 2 cbr 1000 ------- 3 1.0 2.0 59 61
- 0.024864 1 2 cbr 1000 ------- 3 1.0 2.0 31 33
r 0.0252 1 2 cbr 1000 ------- 3 1.0 2.0 18 20
+ 0.025263 1 2 cbr 1000 ------- 3 1.0 2.0 60 62
- 0.025664 1 2 cbr 1000 ------- 3 1.0 2.0 32 34
+ 0.025684 1 2 cbr 1000 ------- 3 1.0 2.0 61 63
r 0.026 1 2 cbr 1000 ------- 3 1.0 2.0 19 21
+ 0.026105 1 2 cbr 1000 ------- 3 1.0 2.0 62 64
- 0.026464 1 2 cbr 1000 ------- 3 1.0 2.0 33 35
+ 0.026526 1 2 cbr 1000 ------- 3 1.0 2.0 63 65
r 0.0268 1 2 cbr 1000 ------- 3 1.0 2.0 20 22
+ 0.026947 1 2 cbr 1000 ------- 3 1.0 2.0 64 66
- 0.027264 1 2 cbr 1000 ------- 3 1.0 2.0 34 36
+ 0.027368 1 2 cbr 1000 ------- 3 1.0 2.0 65 67
r 0.0276 1 2 cbr 1000 ------- 3 1.0 2.0 21 23
+ 0.027789 1 2 cbr 1000 ------- 3 1.0 2.0 66 68
- 0.028064 1 2 cbr 1000 ------- 3 1.0 2.0 35 37
+ 0.028211 1 2 cbr 1000 ------- 3 1.0 2.0 67 69
r 0.0284 1 2 cbr 1000 ------- 3 1.0 2.0 22 24
+ 0.028632 1 2 cbr 1000 ------- 3 1.0 2.0 68 70
- 0.028864 1 2 cbr 1000 ------- 3 1.0 2.0 36 38
+ 0.029053 1 2 cbr 1000 ------- 3 1.0 2.0 69 71
r 0.0292 1 2 cbr 1000 ------- 3 1.0 2.0 23 25
r 0.029232 1 2 tcp 40 ------- 2 0.0 3.0 0 1
+ 0.029232 2 3 tcp 40 ------- 2 0.0 3.0 0 1
- 0.029232 2 3 tcp 40 ------- 2 0.0 3.0 0 1
r 0.029264 1 2 tcp 40 ------- 1 4.0 5.0 0 2
+ 0.029264 2 5 tcp 40 ------- 1 4.0 5.0 0 2
- 0.029264 2 5 tcp 40 ------- 1 4.0 5.0 0 2
+ 0.029474 1 2 cbr 1000 ------- 3 1.0 2.0 70 72
- 0.029664 1 2 cbr 1000 ------- 3 1.0 2.0 37 39
+ 0.029895 1 2 cbr 1000 ------- 3 1.0 2.0 71 73
r 0.030064 1 2 cbr 1000 ------- 3 1.0 2.0 24 26
+ 0.030316 1 2 cbr 1000 ------- 3 1.0 2.0 72 74
- 0.030464 1 2 cbr 1000 ------- 3 1.0 2.0 38 40
+ 0.030737 1 2 cbr 1000 ------- 3 1.0 2.0 73 75
r 0.030864 1 2 cbr 1000 ------- 3 1.0 2.0 25 27
+ 0.031158 1 2 cbr 1000 ------- 3 1.0 2.0 74 76
- 0.031264 1 2 cbr 1000 ------- 3 1.0 2.0 39 41
+ 0.031579 1 2 cbr 1000 ------- 3 1.0 2.0 75 77
r 0.031664 1 2 cbr 1000 ------- 3 1.0 2.0 26 28
+ 0.032 1 2 cbr 1000 ------- 3 1.0 2.0 76 78
- 0.032064 1 2 cbr 1000 ------- 3 1.0 2.0 40 42
+ 0.032421 1 2 cbr 1000 ------- 3 1.0 2.0 77 79
r 0.032464 1 2 cbr 1000 ------- 3 1.0 2.0 27 29
+ 0.032842 1 2 cbr 1000 ------- 3 1.0 2.0 78 80
- 0.032864 1 2 cbr 1000 ------- 3 1.0 2.0 41 43
+ 0.033263 1 2 cbr 1000 ------- 3 1.0 2.0 79 81
r 0.033264 1 2 cbr 1000 ------- 3 1.0 2.0 28 30
- 0.033664 1 2 cbr 1000 ------- 3 1.0 2.0 42 44
+ 0.033684 1 2 cbr 1000 ------- 3 1.0 2.0 80 82
r 0.034064 1 2 cbr 1000 ------- 3 1.0 2.0 29 31
+ 0.034105 1 2 cbr 1000 ------- 3 1.0 2.0 81 83
- 0.034464 1 2 cbr 1000 ------- 3 1.0 2.0 43 45
+ 0.034526 1 2 cbr 1000 ------- 3 1.0 2.0 82 84
r 0.034864 1 2 cbr 1000 ------- 3 1.0 2.0 30 32
+ 0.034947 1 2 cbr 1000 ------- 3 1.0 2.0 83 85
- 0.035264 1 2 cbr 1000 ------- 3 1.0 2.0 44 46
+ 0.035368 1 2 cbr 1000 ------- 3 1.0 2.0 84 86
r 0.035664 1 2 cbr 1000 ------- 3 1.0 2.0 31 33
+ 0.035789 1 2 cbr 1000 ------- 3 1.0 2.0 85 87
- 0.036064 1 2 cbr 1000 ------- 3 1.0 2.0 45 47
+ 0.036211 1 2 cbr 1000 ------- 3 1.0 2.0 86 88
r 0.036464 1 2 cbr 1000 ------- 3 1.0 2.0 32 34
+ 0.036632 1 2 cbr 1000 ------- 3 1.0 2.0 87 89
- 0.036864 1 2 cbr 1000 ------- 3 1.0 2.0 46 48
+ 0.037053 1 2 cbr 1000 ------- 3 1.0 2.0 88 90
r 0.037264 1 2 cbr 1000 ------- 3 1.0 2.0 33 35
+ 0.037474 1 2 cbr 1000 ------- 3 1.0 2.0 89 91
- 0.037664 1 2 cbr 1000 ------- 3 1.0 2.0 47 49
+ 0.037895 1 2 cbr 1000 ------- 3 1.0 2.0 90 92
r 0.038064 1 2 cbr 1000 ------- 3 1.0 2.0 34 36
+ 0.038316 1 2 cbr 1000 ------- 3 1.0 2.0 91 93
- 0.038464 1 2 cbr 1000 ------- 3 1.0 2.0 48 50
+ 0.038737 1 2 cbr 1000 ------- 3 1.0 2.0 92 94
r 0.038864 1 2 cbr 1000 ------- 3 1.0 2.0 35 37
+ 0.039158 1 2 cbr 1000 ------- 3 1.0 2.0 93 95
r 0.039264 2 3 tcp 40 ------- 2 0.0 3.0 0 1
+ 0.039264 3 2 ack 40 ------- 2 3.0 0.0 0 96
- 0.039264 3 2 ack 40 ------- 2 3.0 0.0 0 96
- 0.039264 1 2 cbr 1000 ------- 3 1.0 2.0 49 51
r 0.039296 2 5 tcp 40 ------- 1 4.0 5.0 0 2
+ 0.039296 5 2 ack 40 ------- 1 5.0 4.0 0 97
- 0.039296 5 2 ack 40 ------- 1 5.0 4.0 0 97
+ 0.039579 1 2 cbr 1000 ------- 3 1.0 2.0 94 98
r 0.039664 1 2 cbr 1000 ------- 3 1.0 2.0 36 38
+ 0.04 1 2 cbr 1000 ------- 3 1.0 2.0 95 99
- 0.040064 1 2 cbr 1000 ------- 3 1.0 2.0 50 52
+ 0.040421 1 2 cbr 1000 ------- 3 1.0 2.0 96 100
r 0.040464 1 2 cbr 1000 ------- 3 1.0 2.0 37 39
+ 0.040842 1 2 cbr 1000 ------- 3 1.0 2.0 97 101
- 0.040864 1 2 cbr 1000 ------- 3 1.0 2.0 51 53
+ 0.041263 1 2 cbr 1000 ------- 3 1.0 2.0 98 102
r 0.041264 1 2 cbr 1000 ------- 3 1.0 2.0 38 40
- 0.041664 1 2 cbr 1000 ------- 3 1.0 2.0 52 54
+ 0.041684 1 2 cbr 1000 ------- 3 1.0 2.0 99 103
r 0.042064 1 2 cbr 1000 ------- 3 1.0 2.0 39 41
+ 0.042105 1 2 cbr 1000 ------- 3 1.0 2.0 100 104
- 0.042464 1 2 cbr 1000 ------- 3 1.0 2.0 53 55
+ 0.042526 1 2 cbr 1000 ------- 3 1.0 2.0 101 105
r 0.042864 1 2 cbr 1000 ------- 3 1.0 2.0 40 42
+ 0.042947 1 2 cbr 1000 ------- 3 1.0 2.0 102 106
- 0.043264 1 2 cbr 1000 ------- 3 1.0 2.0 54 56
+ 0.043368 1 2 cbr 1000 ------- 3 1.0 2.0 103 107
r 0.043664 1 2 cbr 1000 ------- 3 1.0 2.0 41 43
+ 0.043789 1 2 cbr 1000 ------- 3 1.0 2.0 104 108
d 0.043789 1 2 cbr 1000 ------- 3 1.0 2.0 104 108
- 0.044064 1 2 cbr 1000 ------- 3 1.0 2.0 55 57
+ 0.044211 1 2 cbr 1000 ------- 3 1.0 2.0 105 109
r 0.044464 1 2 cbr 1000 ------- 3 1.0 2.0 42 44
+ 0.044632 1 2 cbr 1000 ------- 3 1.0 2.0 106 110
d 0.044632 1 2 cbr 1000 ------- 3 1.0 2.0 106 110
- 0.044864 1 2 cbr 1000 ------- 3 1.0 2.0 56 58
+ 0.045053 1 2 cbr 1000 ------- 3 1.0 2.0 107 111
r 0.045264 1 2 cbr 1000 ------- 3 1.0 2.0 43 45
+ 0.045474 1 2 cbr 1000 ------- 3 1.0 2.0 108 112
d 0.045474 1 2 cbr 1000 ------- 3 1.0 2.0 108 112
- 0.045664 1 2 cbr 1000 ------- 3 1.0 2.0 57 59
+ 0.045895 1 2 cbr 1000 ------- 3 1.0 2.0 109 113
r 0.046064 1 2 cbr 1000 ------- 3 1.0 2.0 44 46
+ 0.046316 1 2 cbr 1000 ------- 3 1.0 2.0 110 114
d 0.046316 1 2 cbr 1000 ------- 3 1.0 2.0 110 114
- 0.046464 1 2 cbr 1000 ------- 3 1.0 2.0 58 60
+ 0.046737 1 2 cbr 1000 ------- 3 1.0 2.0 111 115
r 0.046864 1 2 cbr 1000 ------- 3 1.0 2.0 45 47
+ 0.047158 1 2 cbr 1000 ------- 3 1.0 2.0 112 116
d 0.047158 1 2 cbr 1000 ------- 3 1.0 2.0 112 116
- 0.047264 1 2 cbr 1000 ------- 3 1.0 2.0 59 61
+ 0.047579 1 2 cbr 1000 ------- 3 1.0 2.0 113 117
r 0.047664 1 2 cbr 1000 ------- 3 1.0 2.0 46 48
+ 0.048 1 2 cbr 1000 ------- 3 1.0 2.0 114 118
d 0.048 1 2 cbr 1000 ------- 3 1.0 2.0 114 118
- 0.048064 1 2 cbr 1000 ------- 3 1.0 2.0 60 62
+ 0.048421 1 2 cbr 1000 ------- 3 1.0 2.0 115 119
r 0.048464 1 2 cbr 1000 ------- 3 1.0 2.0 47 49
+ 0.048842 1 2 cbr 1000 ------- 3 1.0 2.0 116 120
d 0.048842 1 2 cbr 1000 ------- 3 1.0 2.0 116 120
- 0.048864 1 2 cbr 1000 ------- 3 1.0 2.0 61 63
+ 0.049263 1 2 cbr 1000 ------- 3 1.0 2.0 117 121
r 0.049264 1 2 cbr 1000 ------- 3 1.0 2.0 48 50
r 0.049296 3 2 ack 40 ------- 2 3.0 0.0 0 96
+ 0.049296 2 1 ack 40 ------- 2 3.0 0.0 0 96
- 0.049296 2 1 ack 40 ------- 2 3.0 0.0 0 96
r 0.049328 5 2 ack 40 ------- 1 5.0 4.0 0 97
+ 0.049328 2 1 ack 40 ------- 1 5.0 4.0 0 97
- 0.049328 2 1 ack 40 ------- 1 5.0 4.0 0 97
- 0.049664 1 2 cbr 1000 ------- 3 1.0 2.0 62 64
+ 0.049684 1 2 cbr 1000 ------- 3 1.0 2.0 118 122
r 0.050064 1 2 cbr 1000 ------- 3 1.0 2.0 49 51
+ 0.050105 1 2 cbr 1000 ------- 3 1.0 2.0 119 123
d 0.050105 1 2 cbr 1000 ------- 3 1.0 2.0 119 123
- 0.050464 1 2 cbr 1000 ------- 3 1.0 2.0 63 65
+ 0.050526 1 2 cbr 1000 ------- 3 1.0 2.0 120 124
r 0.050864 1 2 cbr 1000 ------- 3 1.0 2.0 50 52
+ 0.050947 1 2 cbr 1000 ------- 3 1.0 2.0 121 125
d 0.050947 1 2 cbr 1000 ------- 3 1.0 2.0 121 125
- 0.051264 1 2 cbr 1000 ------- 3 1.0 2.0 64 66
+ 0.051368 1 2 cbr 1000 ------- 3 1.0 2.0 122 126
r 0.051664 1 2 cbr 1000 ------- 3 1.0 2.0 51 53
+ 0.051789 1 2 cbr 1000 ------- 3 1.0 2.0 123 127
d 0.051789 1 2 cbr 1000 ------- 3 1.0 2.0 123 127
- 0.052064 1 2 cbr 1000 ------- 3 1.0 2.0 65 67
+ 0.052211 1 2 cbr 1000 ------- 3 1.0 2.0 124 128
r 0.052464 1 2 cbr 1000 ------- 3 1.0 2.0 52 54
+ 0.052632 1 2 cbr 1000 ------- 3 1.0 2.0 125 129
d 0.052632 1 2 cbr 1000 ------- 3 1.0 2.0 125 129
- 0.052864 1 2 cbr 1000 ------- 3 1.0 2.0 66 68
+ 0.053053 1 2 cbr 1000 ------- 3 1.0 2.0 126 130
r 0.053264 1 2 cbr 1000 ------- 3 1.0 2.0 53 55
+ 0.053474 1 2 cbr 1000 ------- 3 1.0 2.0 127 131
d 0.053474 1 2 cbr 1000 ------- 3 1.0 2.0 127 131
- 0.053664 1 2 cbr 1000 ------- 3 1.0 2.0 67 69
+ 0.053895 1 2 cbr 1000 ------- 3 1.0 2.0 128 132
r 0.054064 1 2 cbr 1000 ------- 3 1.0 2.0 54 56
+ 0.054316 1 2 cbr 1000 ------- 3 1.0 2.0 129 133
d 0.054316 1 2 cbr 1000 ------- 3 1.0 2.0 129 133
- 0.054464 1 2 cbr 1000 ------- 3 1.0 2.0 68 70
+ 0.054737 1 2 cbr 1000 ------- 3 1.0 2.0 130 134
r 0.054864 1 2 cbr 1000 ------- 3 1.0 2.0 55 57
+ 0.055158 1 2 cbr 1000 ------- 3 1.0 2.0 131 135
d 0.055158 1 2 cbr 1000 ------- 3 1.0 2.0 131 135
- 0.055264 1 2 cbr 1000 ------- 3 1.0 2.0 69 71
+ 0.055579 1 2 cbr 1000 ------- 3 1.0 2.0 132 136
r 0.055664 1 2 cbr 1000 ------- 3 1.0 2.0 56 58
+ 0.056 1 2 cbr 1000 ------- 3 1.0 2.0 133 137
d 0.056 1 2 cbr 1000 ------- 3 1.0 2.0 133 137
- 0.056064 1 2 cbr 1000 ------- 3 1.0 2.0 70 72
+ 0.056421 1 2 cbr 1000 ------- 3 1.0 2.0 134 138
r 0.056464 1 2 cbr 1000 ------- 3 1.0 2.0 57 59
+ 0.056842 1 2 cbr 1000 ------- 3 1.0 2.0 135 139
d 0.056842 1 2 cbr 1000 ------- 3 1.0 2.0 135 139
- 0.056864 1 2 cbr 1000 ------- 3 1.0 2.0 71 73
+ 0.057263 1 2 cbr 1000 ------- 3 1.0 2.0 136 140
r 0.057264 1 2 cbr 1000 ------- 3 1.0 2.0 58 60
- 0.057664 1 2 cbr 1000 ------- 3 1.0 2.0 72 74
+ 0.057684 1 2 cbr 1000 ------- 3 1.0 2.0 137 141
r 0.058064 1 2 cbr 1000 ------- 3 1.0 2.0 59 61
+ 0.058105 1 2 cbr 1000 ------- 3 1.0 2.0 138 142
d 0.058105 1 2 cbr 1000 ------- 3 1.0 2.0 138 142
- 0.058464 1 2 cbr 1000 ------- 3 1.0 2.0 73 75
+ 0.058526 1 2 cbr 1000 ------- 3 1.0 2.0 139 143
r 0.058864 1 2 cbr 1000 ------- 3 1.0 2.0 60 62
+ 0.058947 1 2 cbr 1000 ------- 3 1.0 2.0 140 144
d 0.058947 1 2 cbr 1000 ------- 3 1.0 2.0 140 144
- 0.059264 1 2 cbr 1000 ------- 3 1.0 2.0 74 76
r 0.059328 2 1 ack 40 ------- 2 3.0 0.0 0 96
+ 0.059328 1 0 ack 40 ------- 2 3.0 0.0 0 96
- 0.059328 1 0 ack 40 ------- 2 3.0 0.0 0 96
r 0.05936 2 1 ack 40 ------- 1 5.0 4.0 0 97
+ 0.05936 1 4 ack 40 ------- 1 5.0 4.0 0 97
- 0.05936 1 4 ack 40 ------- 1 5.0 4.0 0 97
+ 0.059368 1 2 cbr 1000 ------- 3 1.0 2.0 141 145
r 0.059664 1 2 cbr 1000 ------- 3 1.0 2.0 61 63
+ 0.059789 1 2 cbr 1000 ------- 3 1.0 2.0 142 146
d 0.059789 1 2 cbr 1000 ------- 3 1.0 2.0 142 146
- 0.060064 1 2 cbr 1000 ------- 3 1.0 2.0 75 77
+ 0.060211 1 2 cbr 1000 ------- 3 1.0 2.0 143 147
r 0.060464 1 2 cbr 1000 ------- 3 1.0 2.0 62 64
+ 0.060632 1 2 cbr 1000 ------- 3 1.0 2.0 144 148
d 0.060632 1 2 cbr 1000 ------- 3 1.0 2.0 144 148
- 0.060864 1 2 cbr 1000 ------- 3 1.0 2.0 76 78
+ 0.061053 1 2 cbr 1000 ------- 3 1.0 2.0 145 149
r 0.061264 1 2 cbr 1000 ------- 3 1.0 2.0 63 65
+ 0.061474 1 2 cbr 1000 ------- 3 1.0 2.0 146 150
d 0.061474 1 2 cbr 1000 ------- 3 1.0 2.0 146 150
- 0.061664 1 2 cbr 1000 ------- 3 1.0 2.0 77 79
+ 0.061895 1 2 cbr 1000 ------- 3 1.0 2.0 147 151
r 0.062064 1 2 cbr 1000 ------- 3 1.0 2.0 64 66
+ 0.062316 1 2 cbr 1000 ------- 3 1.0 2.0 148 152
d 0.062316 1 2 cbr 1000 ------- 3 1.0 2.0 148 152
- 0.062464 1 2 cbr 1000 ------- 3 1.0 2.0 78 80
+ 0.062737 1 2 cbr 1000 ------- 3 1.0 2.0 149 153
r 0.062864 1 2 cbr 1000 ------- 3 1.0 2.0 65 67
+ 0.063158 1 2 cbr 1000 ------- 3 1.0 2.0 150 154
d 0.063158 1 2 cbr 1000 ------- 3 1.0 2.0 150 154
- 0.063264 1 2 cbr 1000 ------- 3 1.0 2.0 79 81
+ 0.063579 1 2 cbr 1000 ------- 3 1.0 2.0 151 155
r 0.063664 1 2 cbr 1000 ------- 3 1.0 2.0 66 68
+ 0.064 1 2 cbr 1000 ------- 3 1.0 2.0 152 156
d 0.064 1 2 cbr 1000 ------- 3 1.0 2.0 152 156
- 0.064064 1 2 cbr 1000 ------- 3 1.0 2.0 80 82
+ 0.064421 1 2 cbr 1000 ------- 3 1.0 2.0 153 157
r 0.064464 1 2 cbr 1000 ------- 3 1.0 2.0 67 69
+ 0.064842 1 2 cbr 1000 ------- 3 1.0 2.0 154 158
d 0.064842 1 2 cbr 1000 ------- 3 1.0 2.0 154 158
- 0.064864 1 2 cbr 1000 ------- 3 1.0 2.0 81 83
+ 0.065263 1 2 cbr 1000 ------- 3 1.0 2.0 155 159
r 0.065264 1 2 cbr 1000 ------- 3 1.0 2.0 68 70
- 0.065664 1 2 cbr 1000 ------- 3 1.0 2.0 82 84
+ 0.065684 1 2 cbr 1000 ------- 3 1.0 2.0 156 160
r 0.066064 1 2 cbr 1000 ------- 3 1.0 2.0 69 71
+ 0.066105 1 2 cbr 1000 ------- 3 1.0 2.0 157 161
d 0.066105 1 2 cbr 1000 ------- 3 1.0 2.0 157 161
- 0.066464 1 2 cbr 1000 ------- 3 1.0 2.0 83 85
+ 0.066526 1 2 cbr 1000 ------- 3 1.0 2.0 158 162
r 0.066864 1 2 cbr 1000 ------- 3 1.0 2.0 70 72
+ 0.066947 1 2 cbr 1000 ------- 3 1.0 2.0 159 163
d 0.066947 1 2 cbr 1000 ------- 3 1.0 2.0 159 163
- 0.067264 1 2 cbr 1000 ------- 3 1.0 2.0 84 86
+ 0.067368 1 2 cbr 1000 ------- 3 1.0 2.0 160 164
r 0.067664 1 2 cbr 1000 ------- 3 1.0 2.0 71 73
+ 0.067789 1 2 cbr 1000 ------- 3 1.0 2.0 161 165
d 0.067789 1 2 cbr 1000 ------- 3 1.0 2.0 161 165
- 0.068064 1 2 cbr 1000 ------- 3 1.0 2.0 85 87
+ 0.068211 1 2 cbr 1000 ------- 3 1.0 2.0 162 166
r 0.068464 1 2 cbr 1000 ------- 3 1.0 2.0 72 74
+ 0.068632 1 2 cbr 1000 ------- 3 1.0 2.0 163 167
d 0.068632 1 2 cbr 1000 ------- 3 1.0 2.0 163 167
- 0.068864 1 2 cbr 1000 ------- 3 1.0 2.0 86 88
+ 0.069053 1 2 cbr 1000 ------- 3 1.0 2.0 164 168
r 0.069264 1 2 cbr 1000 ------- 3 1.0 2.0 73 75
r 0.06936 1 0 ack 40 ------- 2 3.0 0.0 0 96
+ 0.06936 0 1 tcp 1040 ------- 2 0.0 3.0 1 169
- 0.06936 0 1 tcp 1040 ------- 2 0.0 3.0 1 169
+ 0.06936 0 1 tcp 1040 ------- 2 0.0 3.0 2 170
r 0.069392 1 4 ack 40 ------- 1 5.0 4.0 0 97
+ 0.069392 4 1 tcp 1040 ------- 1 4.0 5.0 1 171
- 0.069392 4 1 tcp 1040 ------- 1 4.0 5.0 1 171
+ 0.069392 4 1 tcp 1040 ------- 1 4.0 5.0 2 172
+ 0.069474 1 2 cbr 1000 ------- 3 1.0 2.0 165 173
d 0.069474 1 2 cbr 1000 ------- 3 1.0 2.0 165 173
- 0.069664 1 2 cbr 1000 ------- 3 1.0 2.0 87 89
+ 0.069895 1 2 cbr 1000 ------- 3 1.0 2.0 166 174
r 0.070064 1 2 cbr 1000 ------- 3 1.0 2.0 74 76
- 0.070192 0 1 tcp 1040 ------- 2 0.0 3.0 2 170
- 0.070224 4 1 tcp 1040 ------- 1 4.0 5.0 2 172
+ 0.070316 1 2 cbr 1000 ------- 3 1.0 2.0 167 175
d 0.070316 1 2 cbr 1000 ------- 3 1.0 2.0 167 175
- 0.070464 1 2 cbr 1000 ------- 3 1.0 2.0 88 90
+ 0.070737 1 2 cbr 1000 ------- 3 1.0 2.0 168 176
r 0.070864 1 2 cbr 1000 ------- 3 1.0 2.0 75 77
+ 0.071158 1 2 cbr 1000 ------- 3 1.0 2.0 169 177
d 0.071158 1 2 cbr 1000 ------- 3 1.0 2.0 169 177
- 0.071264 1 2 cbr 1000 ------- 3 1.0 2.0 89 91
+ 0.071579 1 2 cbr 1000 ------- 3 1.0 2.0 170 178
r 0.071664 1 2 cbr 1000 ------- 3 1.0 2.0 76 78
+ 0.072 1 2 cbr 1000 ------- 3 1.0 2.0 171 179
d 0.072 1 2 cbr 1000 ------- 3 1.0 2.0 171 179
- 0.072064 1 2 cbr 1000 ------- 3 1.0 2.0 90 92
+ 0.072421 1 2 cbr 1000 ------- 3 1.0 2.0 172 180
r 0.072464 1 2 cbr 1000 ------- 3 1.0 2.0 77 79
+ 0.072842 1 2 cbr 1000 ------- 3 1.0 2.0 173 181
d 0.072842 1 2 cbr 1000 ------- 3 1.0 2.0 173 181
- 0.072864 1 2 cbr 1000 ------- 3 1.0 2.0 91 93
+ 0.073263 1 2 cbr 1000 ------- 3 1.0 2.0 174 182
r 0.073264 1 2 cbr 1000 ------- 3 1.0 2.0 78 80
- 0.073664 1 2 cbr 1000 ------- 3 1.0 2.0 92 94
+ 0.073684 1 2 cbr 1000 ------- 3 1.0 2.0 175 183
r 0.074064 1 2 cbr 1000 ------- 3 1.0 2.0 79 81
+ 0.074105 1 2 cbr 1000 ------- 3 1.0 2.0 176 184
d 0.074105 1 2 cbr 1000 ------- 3 1.0 2.0 176 184
- 0.074464 1 2 cbr 1000 ------- 3 1.0 2.0 93 95
+ 0.074526 1 2 cbr 1000 ------- 3 1.0 2.0 177 185
r 0.074864 1 2 cbr 1000 ------- 3 1.0 2.0 80 82
+ 0.074947 1 2 cbr 1000 ------- 3 1.0 2.0 178 186
d 0.074947 1 2 cbr 1000 ------- 3 1.0 2.0 178 186
- 0.075264 1 2 cbr 1000 ------- 3 1.0 2.0 94 98
+ 0.075368 1 2 cbr 1000 ------- 3 1.0 2.0 179 187
r 0.075664 1 2 cbr 1000 ------- 3 1.0 2.0 81 83
+ 0.075789 1 2 cbr 1000 ------- 3 1.0 2.0 180 188
d 0.075789 1 2 cbr 1000 ------- 3 1.0 2.0 180 188
- 0.076064 1 2 cbr 1000 ------- 3 1.0 2.0 95 99
+ 0.076211 1 2 cbr 1000 ------- 3 1.0 2.0 181 189
r 0.076464 1 2 cbr 1000 ------- 3 1.0 2.0 82 84
+ 0.076632 1 2 cbr 1000 ------- 3 1.0 2.0 182 190
d 0.076632 1 2 cbr 1000 ------- 3 1.0 2.0 182 190
- 0.076864 1 2 cbr 1000 ------- 3 1.0 2.0 96 100
+ 0.077053 1 2 cbr 1000 ------- 3 1.0 2.0 183 191
r 0.077264 1 2 cbr 1000 ------- 3 1.0 2.0 83 85
+ 0.077474 1 2 cbr 1000 ------- 3 1.0 2.0 184 192
d 0.077474 1 2 cbr 1000 ------- 3 1.0 2.0 184 192
- 0.077664 1 2 cbr 1000 ------- 3 1.0 2.0 97 101
+ 0.077895 1 2 cbr 1000 ------- 3 1.0 2.0 185 193
r 0.078064 1 2 cbr 1000 ------- 3 1.0 2.0 84 86
+ 0.078316 1 2 cbr 1000 ------- 3 1.0 2.0 186 194
d 0.078316 1 2 cbr 1000 ------- 3 1.0 2.0 186 194
- 0.078464 1 2 cbr 1000 ------- 3 1.0 2.0 98 102
+ 0.078737 1 2 cbr 1000 ------- 3 1.0 2.0 187 195
r 0.078864 1 2 cbr 1000 ------- 3 1.0 2.0 85 87
+ 0.079158 1 2 cbr 1000 ------- 3 1.0 2.0 188 196
d 0.079158 1 2 cbr 1000 ------- 3 1.0 2.0 188 196
- 0.079264 1 2 cbr 1000 ------- 3 1.0 2.0 99 103
+ 0.079579 1 2 cbr 1000 ------- 3 1.0 2.0 189 197
r 0.079664 1 2 cbr 1000 ------- 3 1.0 2.0 86 88
+ 0.08 1 2 cbr 1000 ------- 3 1.0 2.0 190 198
d 0.08 1 2 cbr 1000 ------- 3 1.0 2.0 190 198
- 0.080064 1 2 cbr 1000 ------- 3 1.0 2.0 100 104
r 0.080192 0 1 tcp 1040 ------- 2 0.0 3.0 1 169
+ 0.080192 1 2 tcp 1040 ------- 2 0.0 3.0 1 169
r 0.080224 4 1 tcp 1040 ------- 1 4.0 5.0 1 171
+ 0.080224 1 2 tcp 1040 ------- 1 4.0 5.0 1 171
d 0.080224 1 2 tcp 1040 ------- 1 4.0 5.0 1 171
+ 0.080421 1 2 cbr 1000 ------- 3 1.0 2.0 191 199
d 0.080421 1 2 cbr 1000 ------- 3 1.0 2.0 191 199
r 0.080464 1 2 cbr 1000 ------- 3 1.0 2.0 87 89
+ 0.080842 1 2 cbr 1000 ------- 3 1.0 2.0 192 200
d 0.080842 1 2 cbr 1000 ------- 3 1.0 2.0 192 200
- 0.080864 1 2 cbr 1000 ------- 3 1.0 2.0 101 105
r 0.081024 0 1 tcp 1040 ------- 2 0.0 3.0 2 170
+ 0.081024 1 2 tcp 1040 ------- 2 0.0 3.0 2 170
r 0.081056 4 1 tcp 1040 ------- 1 4.0 5.0 2 172
+ 0.081056 1 2 tcp 1040 ------- 1 4.0 5.0 2 172
d 0.081056 1 2 tcp 1040 ------- 1 4.0 5.0 2 172
+ 0.081263 1 2 cbr 1000 ------- 3 1.0 2.0 193 201
d 0.081263 1 2 cbr 1000 ------- 3 1.0 2.0 193 201
r 0.081264 1 2 cbr 1000 ------- 3 1.0 2.0 88 90
- 0.081664 1 2 cbr 1000 ------- 3 1.0 2.0 102 106
+ 0.081684 1 2 cbr 1000 ------- 3 1.0 2.0 194 202
r 0.082064 1 2 cbr 1000 ------- 3 1.0 2.0 89 91
+ 0.082105 1 2 cbr 1000 ------- 3 1.0 2.0 195 203
d 0.082105 1 2 cbr 1000 ------- 3 1.0 2.0 195 203
- 0.082464 1 2 cbr 1000 ------- 3 1.0 2.0 103 107
+ 0.082526 1 2 cbr 1000 ------- 3 1.0 2.0 196 204
r 0.082864 1 2 cbr 1000 ------- 3 1.0 2.0 90 92
+ 0.082947 1 2 cbr 1000 ------- 3 1.0 2.0 197 205
d 0.082947 1 2 cbr 1000 ------- 3 1.0 2.0 197 205
- 0.083264 1 2 cbr 1000 ------- 3 1.0 2.0 105 109
+ 0.083368 1 2 cbr 1000 ------- 3 1.0 2.0 198 206
r 0.083664 1 2 cbr 1000 ------- 3 1.0 2.0 91 93
+ 0.083789 1 2 cbr 1000 ------- 3 1.0 2.0 199 207
d 0.083789 1 2 cbr 1000 ------- 3 1.0 2.0 199 207
- 0.084064 1 2 cbr 1000 ------- 3 1.0 2.0 107 111
+ 0.084211 1 2 cbr 1000 ------- 3 1.0 2.0 200 208
r 0.084464 1 2 cbr 1000 ------- 3 1.0 2.0 92 94
+ 0.084632 1 2 cbr 1000 ------- 3 1.0 2.0 201 209
d 0.084632 1 2 cbr 1000 ------- 3 1.0 2.0 201 209
- 0.084864 1 2 cbr 1000 ------- 3 1.0 2.0 109 113
+ 0.085053 1 2 cbr 1000 ------- 3 1.0 2.0 202 210
r 0.085264 1 2 cbr 1000 ------- 3 1.0 2.0 93 95
+ 0.085474 1 2 cbr 1000 ------- 3 1.0 2.0 203 211
d 0.085474 1 2 cbr 1000 ------- 3 1.0 2.0 203 211
- 0.085664 1 2 cbr 1000 ------- 3 1.0 2.0 111 115
+ 0.085895 1 2 cbr 1000 ------- 3 1.0 2.0 204 212
r 0.086064 1 2 cbr 1000 ------- 3 1.0 2.0 94 98
+ 0.086316 1 2 cbr 1000 ------- 3 1.0 2.0 205 213
d 0.086316 1 2 cbr 1000 ------- 3 1.0 2.0 205 213
- 0.086464 1 2 cbr 1000 ------- 3 1.0 2.0 113 117
+ 0.086737 1 2 cbr 1000 ------- 3 1.0 2.0 206 214
r 0.086864 1 2 cbr 1000 ------- 3 1.0 2.0 95 99
+ 0.087158 1 2 cbr 1000 ------- 3 1.0 2.0 207 215
d 0.087158 1 2 cbr 1000 ------- 3 1.0 2.0 207 215
- 0.087264 1 2 cbr 1000 ------- 3 1.0 2.0 115 119
+ 0.087579 1 2 cbr 1000 ------- 3 1.0 2.0 208 216
r 0.087664 1 2 cbr 1000 ------- 3 1.0 2.0 96 100
+ 0.088 1 2 cbr 1000 ------- 3 1.0 2.0 209 217
d 0.088 1 2 cbr 1000 ------- 3 1.0 2.0 209 217
- 0.088064 1 2 cbr 1000 ------- 3 1.0 2.0 117 121
+ 0.088421 1 2 cbr 1000 ------- 3 1.0 2.0 210 218
r 0.088464 1 2 cbr 1000 ------- 3 1.0 2.0 97 101
+ 0.088842 1 2 cbr 1000 ------- 3 1.0 2.0 211 219
d 0.088842 1 2 cbr 1000 ------- 3 1.0 2.0 211 219
- 0.088864 1 2 cbr 1000 ------- 3 1.0 2.0 118 122
+ 0.089263 1 2 cbr 1000 ------- 3 1.0 2.0 212 220
r 0.089264 1 2 cbr 1000 ------- 3 1.0 2.0 98 102
- 0.089664 1 2 cbr 1000 ------- 3 1.0 2.0 120 124
+ 0.089684 1 2 cbr 1000 ------- 3 1.0 2.0 213 221
r 0.090064 1 2 cbr 1000 ------- 3 1.0 2.0 99 103
+ 0.090105 1 2 cbr 1000 ------- 3 1.0 2.0 214 222
d 0.090105 1 2 cbr 1000 ------- 3 1.0 2.0 214 222
- 0.090464 1 2 cbr 1000 ------- 3 1.0 2.0 122 126
+ 0.090526 1 2 cbr 1000 ------- 3 1.0 2.0 215 223
r 0.090864 1 2 cbr 1000 ------- 3 1.0 2.0 100 104
+ 0.090947 1 2 cbr 1000 ------- 3 1.0 2.0 216 224
d 0.090947 1 2 cbr 1000 ------- 3 1.0 2.0 216 224
- 0.091264 1 2 cbr 1000 ------- 3 1.0 2.0 124 128
+ 0.091368 1 2 cbr 1000 ------- 3 1.0 2.0 217 225
r 0.091664 1 2 cbr 1000 ------- 3 1.0 2.0 101 105
+ 0.091789 1 2 cbr 1000 ------- 3 1.0 2.0 218 226
d 0.091789 1 2 cbr 1000 ------- 3 1.0 2.0 218 226
- 0.092064 1 2 cbr 1000 ------- 3 1.0 2.0 126 130
+ 0.092211 1 2 cbr 1000 ------- 3 1.0 2.0 219 227
r 0.092464 1 2 cbr 1000 ------- 3 1.0 2.0 102 106
+ 0.092632 1 2 cbr 1000 ------- 3 1.0 2.0 220 228
d 0.092632 1 2 cbr 1000 ------- 3 1.0 2.0 220 228
- 0.092864 1 2 cbr 1000 ------- 3 1.0 2.0 128 132
+ 0.093053 1 2 cbr 1000 ------- 3 1.0 2.0 221 229
r 0.093264 1 2 cbr 1000 ------- 3 1.0 2.0 103 107
+ 0.093474 1 2 cbr 1000 ------- 3 1.0 2.0 222 230
d 0.093474 1 2 cbr 1000 ------- 3 1.0 2.0 222 230
- 0.093664 1 2 cbr 1000 ------- 3 1.0 2.0 130 134
+ 0.093895 1 2 cbr 1000 ------- 3 1.0 2.0 223 231
r 0.094064 1 2 cbr 1000 ------- 3 1.0 2.0 105 109
+ 0.094316 1 2 cbr 1000 ------- 3 1.0 2.0 224 232
d 0.094316 1 2 cbr 1000 ------- 3 1.0 2.0 224 232
- 0.094464 1 2 cbr 1000 ------- 3 1.0 2.0 132 136
+ 0.094737 1 2 cbr 1000 ------- 3 1.0 2.0 225 233
r 0.094864 1 2 cbr 1000 ------- 3 1.0 2.0 107 111
+ 0.095158 1 2 cbr 1000 ------- 3 1.0 2.0 226 234
d 0.095158 1 2 cbr 1000 ------- 3 1.0 2.0 226 234
- 0.095264 1 2 cbr 1000 ------- 3 1.0 2.0 134 138
+ 0.095579 1 2 cbr 1000 ------- 3 1.0 2.0 227 235
r 0.095664 1 2 cbr 1000 ------- 3 1.0 2.0 109 113
+ 0.096 1 2 cbr 1000 ------- 3 1.0 2.0 228 236
d 0.096 1 2 cbr 1000 ------- 3 1.0 2.0 228 236
- 0.096064 1 2 cbr 1000 ------- 3 1.0 2.0 136 140
+ 0.096421 1 2 cbr 1000 ------- 3 1.0 2.0 229 237
r 0.096464 1 2 cbr 1000 ------- 3 1.0 2.0 111 115
+ 0.096842 1 2 cbr 1000 ------- 3 1.0 2.0 230 238
d 0.096842 1 2 cbr 1000 ------- 3 1.0 2.0 230 238
- 0.096864 1 2 cbr 1000 ------- 3 1.0 2.0 137 141
+ 0.097263 1 2 cbr 1000 ------- 3 1.0 2.0 231 239
r 0.097264 1 2 cbr 1000 ------- 3 1.0 2.0 113 117
- 0.097664 1 2 cbr 1000 ------- 3 1.0 2.0 139 143
+ 0.097684 1 2 cbr 1000 ------- 3 1.0 2.0 232 240
r 0.098064 1 2 cbr 1000 ------- 3 1.0 2.0 115 119
+ 0.098105 1 2 cbr 1000 ------- 3 1.0 2.0 233 241
d 0.098105 1 2 cbr 1000 ------- 3 1.0 2.0 233 241
- 0.098464 1 2 cbr 1000 ------- 3 1.0 2.0 141 145
+ 0.098526 1 2 cbr 1000 ------- 3 1.0 2.0 234 242
r 0.098864 1 2 cbr 1000 ------- 3 1.0 2.0 117 121
+ 0.098947 1 2 cbr 1000 ------- 3 1.0 2.0 235 243
d 0.098947 1 2 cbr 1000 ------- 3 1.0 2.0 235 243
- 0.099264 1 2 cbr 1000 ------- 3 1.0 2.0 143 147
+ 0.099368 1 2 cbr 1000 ------- 3 1.0 2.0 236 244
r 0.099664 1 2 cbr 1000 ------- 3 1.0 2.0 118 122
+ 0.099789 1 2 cbr 1000 ------- 3 1.0 2.0 237 245
d 0.099789 1 2 cbr 1000 ------- 3 1.0 2.0 237 245
- 0.100064 1 2 cbr 1000 ------- 3 1.0 2.0 145 149
+ 0.100211 1 2 cbr 1000 ------- 3 1.0 2.0 238 246
r 0.100464 1 2 cbr 1000 ------- 3 1.0 2.0 120 124
+ 0.100632 1 2 cbr 1000 ------- 3 1.0 2.0 239 247
d 0.100632 1 2 cbr 1000 ------- 3 1.0 2.0 239 247
- 0.100864 1 2 cbr 1000 ------- 3 1.0 2.0 147 151
+ 0.101053 1 2 cbr 1000 ------- 3 1.0 2.0 240 248
r 0.101264 1 2 cbr 1000 ------- 3 1.0 2.0 122 126
+ 0.101474 1 2 cbr 1000 ------- 3 1.0 2.0 241 249
d 0.101474 1 2 cbr 1000 ------- 3 1.0 2.0 241 249
- 0.101664 1 2 cbr 1000 ------- 3 1.0 2.0 149 153
+ 0.101895 1 2 cbr 1000 ------- 3 1.0 2.0 242 250
r 0.102064 1 2 cbr 1000 ------- 3 1.0 2.0 124 128
+ 0.102316 1 2 cbr 1000 ------- 3 1.0 2.0 243 251
d 0.102316 1 2 cbr 1000 ------- 3 1.0 2.0 243 251
- 0.102464 1 2 cbr 1000 ------- 3 1.0 2.0 151 155
+ 0.102737 1 2 cbr 1000 ------- 3 1.0 2.0 244 252
r 0.102864 1 2 cbr 1000 ------- 3 1.0 2.0 126 130
+ 0.103158 1 2 cbr 1000 ------- 3 1.0 2.0 245 253
d 0.103158 1 2 cbr 1000 ------- 3 1.0 2.0 245 253
- 0.103264 1 2 cbr 1000 ------- 3 1.0 2.0 153 157
+ 0.103579 1 2 cbr 1000 ------- 3 1.0 2.0 246 254
r 0.103664 1 2 cbr 1000 ------- 3 1.0 2.0 128 132
+ 0.104 1 2 cbr 1000 ------- 3 1.0 2.0 247 255
d 0.104 1 2 cbr 1000 ------- 3 1.0 2.0 247 255
- 0.104064 1 2 cbr 1000 ------- 3 1.0 2.0 155 159