+ 0 0 1 cbr 1000 ------- 1 0.0 3.0 0 0
- 0 0 1 cbr 1000 ------- 1 0.0 3.0 0 0
+ 0.008 0 1 cbr 1000 ------- 1 0.0 3.0 1 1
- 0.008 0 1 cbr 1000 ------- 1 0.0 3.0 1 1
r 0.0108 0 1 cbr 1000 ------- 1 0.0 3.0 0 0
+ 0.0108 1 2 cbr 1000 ------- 1 0.0 3.0 0 0
- 0.0108 1 2 cbr 1000 ------- 1 0.0 3.0 0 0
+ 0.016 0 1 cbr 1000 ------- 1 0.0 3.0 2 2
- 0.016 0 1 cbr 1000 ------- 1 0.0 3.0 2 2
r 0.0188 0 1 cbr 1000 ------- 1 0.0 3.0 1 1
+ 0.0188 1 2 cbr 1000 ------- 1 0.0 3.0 1 1
- 0.0188 1 2 cbr 1000 ------- 1 0.0 3.0 1 1
+ 0.024 0 1 cbr 1000 ------- 1 0.0 3.0 3 3
- 0.024 0 1 cbr 1000 ------- 1 0.0 3.0 3 3
r 0.026133 1 2 cbr 1000 ------- 1 0.0 3.0 0 0
+ 0.026133 2 3 cbr 1000 ------- 1 0.0 3.0 0 0
- 0.026133 2 3 cbr 1000 ------- 1 0.0 3.0 0 0
r 0.0268 0 1 cbr 1000 ------- 1 0.0 3.0 2 2
+ 0.0268 1 2 cbr 1000 ------- 1 0.0 3.0 2 2
- 0.0268 1 2 cbr 1000 ------- 1 0.0 3.0 2 2
+ 0.032 0 1 cbr 1000 ------- 1 0.0 3.0 4 4
- 0.032 0 1 cbr 1000 ------- 1 0.0 3.0 4 4
r 0.034133 1 2 cbr 1000 ------- 1 0.0 3.0 1 1
+ 0.034133 2 3 cbr 1000 ------- 1 0.0 3.0 1 1
- 0.034133 2 3 cbr 1000 ------- 1 0.0 3.0 1 1
r 0.0348 0 1 cbr 1000 ------- 1 0.0 3.0 3 3
+ 0.0348 1 2 cbr 1000 ------- 1 0.0 3.0 3 3
- 0.0348 1 2 cbr 1000 ------- 1 0.0 3.0 3 3
r 0.036933 2 3 cbr 1000 ------- 1 0.0 3.0 0 0
+ 0.04 0 1 cbr 1000 ------- 1 0.0 3.0 5 5
- 0.04 0 1 cbr 1000 ------- 1 0.0 3.0 5 5
r 0.042133 1 2 cbr 1000 ------- 1 0.0 3.0 2 2
+ 0.042133 2 3 cbr 1000 ------- 1 0.0 3.0 2 2
- 0.042133 2 3 cbr 1000 ------- 1 0.0 3.0 2 2
r 0.0428 0 1 cbr 1000 ------- 1 0.0 3.0 4 4
+ 0.0428 1 2 cbr 1000 ------- 1 0.0 3.0 4 4
- 0.0428 1 2 cbr 1000 ------- 1 0.0 3.0 4 4
r 0.044933 2 3 cbr 1000 ------- 1 0.0 3.0 1 1
+ 0.048 0 1 cbr 1000 ------- 1 0.0 3.0 6 6
- 0.048 0 1 cbr 1000 ------- 1 0.0 3.0 6 6
r 0.050133 1 2 cbr 1000 ------- 1 0.0 3.0 3 3
+ 0.050133 2 3 cbr 1000 ------- 1 0.0 3.0 3 3
- 0.050133 2 3 cbr 1000 ------- 1 0.0 3.0 3 3
r 0.0508 0 1 cbr 1000 ------- 1 0.0 3.0 5 5
+ 0.0508 1 2 cbr 1000 ------- 1 0.0 3.0 5 5
- 0.0508 1 2 cbr 1000 ------- 1 0.0 3.0 5 5
r 0.052933 2 3 cbr 1000 ------- 1 0.0 3.0 2 2
+ 0.056 0 1 cbr 1000 ------- 1 0.0 3.0 7 7
- 0.056 0 1 cbr 1000 ------- 1 0.0 3.0 7 7
r 0.058133 1 2 cbr 1000 ------- 1 0.0 3.0 4 4
+ 0.058133 2 3 cbr 1000 ------- 1 0.0 3.0 4 4
- 0.058133 2 3 cbr 1000 ------- 1 0.0 3.0 4 4
r 0.0588 0 1 cbr 1000 ------- 1 0.0 3.0 6 6
+ 0.0588 1 2 cbr 1000 ------- 1 0.0 3.0 6 6
- 0.0588 1 2 cbr 1000 ------- 1 0.0 3.0 6 6
r 0.060933 2 3 cbr 1000 ------- 1 0.0 3.0 3 3
+ 0.064 0 1 cbr 1000 ------- 1 0.0 3.0 8 8
- 0.064 0 1 cbr 1000 ------- 1 0.0 3.0 8 8
r 0.066133 1 2 cbr 1000 ------- 1 0.0 3.0 5 5
+ 0.066133 2 3 cbr 1000 ------- 1 0.0 3.0 5 5
- 0.066133 2 3 cbr 1000 ------- 1 0.0 3.0 5 5
r 0.0668 0 1 cbr 1000 ------- 1 0.0 3.0 7 7
+ 0.0668 1 2 cbr 1000 ------- 1 0.0 3.0 7 7
- 0.0668 1 2 cbr 1000 ------- 1 0.0 3.0 7 7
r 0.068933 2 3 cbr 1000 ------- 1 0.0 3.0 4 4
+ 0.072 0 1 cbr 1000 ------- 1 0.0 3.0 9 9
- 0.072 0 1 cbr 1000 ------- 1 0.0 3.0 9 9
r 0.074133 1 2 cbr 1000 ------- 1 0.0 3.0 6 6
+ 0.074133 2 3 cbr 1000 ------- 1 0.0 3.0 6 6
- 0.074133 2 3 cbr 1000 ------- 1 0.0 3.0 6 6
r 0.0748 0 1 cbr 1000 ------- 1 0.0 3.0 8 8
+ 0.0748 1 2 cbr 1000 ------- 1 0.0 3.0 8 8
- 0.0748 1 2 cbr 1000 ------- 1 0.0 3.0 8 8
r 0.076933 2 3 cbr 1000 ------- 1 0.0 3.0 5 5
+ 0.08 0 1 cbr 1000 ------- 1 0.0 3.0 10 10
- 0.08 0 1 cbr 1000 ------- 1 0.0 3.0 10 10
r 0.082133 1 2 cbr 1000 ------- 1 0.0 3.0 7 7
+ 0.082133 2 3 cbr 1000 ------- 1 0.0 3.0 7 7
- 0.082133 2 3 cbr 1000 ------- 1 0.0 3.0 7 7
r 0.0828 0 1 cbr 1000 ------- 1 0.0 3.0 9 9
+ 0.0828 1 2 cbr 1000 ------- 1 0.0 3.0 9 9
- 0.0828 1 2 cbr 1000 ------- 1 0.0 3.0 9 9
r 0.084933 2 3 cbr 1000 ------- 1 0.0 3.0 6 6
+ 0.088 0 1 cbr 1000 ------- 1 0.0 3.0 11 11
- 0.088 0 1 cbr 1000 ------- 1 0.0 3.0 11 11
r 0.090133 1 2 cbr 1000 ------- 1 0.0 3.0 8 8
+ 0.090133 2 3 cbr 1000 ------- 1 0.0 3.0 8 8
- 0.090133 2 3 cbr 1000 ------- 1 0.0 3.0 8 8
r 0.0908 0 1 cbr 1000 ------- 1 0.0 3.0 10 10
+ 0.0908 1 2 cbr 1000 ------- 1 0.0 3.0 10 10
- 0.0908 1 2 cbr 1000 ------- 1 0.0 3.0 10 10
r 0.092933 2 3 cbr 1000 ------- 1 0.0 3.0 7 7
+ 0.096 0 1 cbr 1000 ------- 1 0.0 3.0 12 12
- 0.096 0 1 cbr 1000 ------- 1 0.0 3.0 12 12
r 0.098133 1 2 cbr 1000 ------- 1 0.0 3.0 9 9
+ 0.098133 2 3 cbr 1000 ------- 1 0.0 3.0 9 9
- 0.098133 2 3 cbr 1000 ------- 1 0.0 3.0 9 9
r 0.0988 0 1 cbr 1000 ------- 1 0.0 3.0 11 11
+ 0.0988 1 2 cbr 1000 ------- 1 0.0 3.0 11 11
- 0.0988 1 2 cbr 1000 ------- 1 0.0 3.0 11 11
+ 0.1 6 1 cbr 1000 ------- 2 6.0 7.0 0 13
- 0.1 6 1 cbr 1000 ------- 2 6.0 7.0 0 13
r 0.100933 2 3 cbr 1000 ------- 1 0.0 3.0 8 8
+ 0.104 0 1 cbr 1000 ------- 1 0.0 3.0 13 14
- 0.104 0 1 cbr 1000 ------- 1 0.0 3.0 13 14
r 0.106133 1 2 cbr 1000 ------- 1 0.0 3.0 10 10
+ 0.106133 2 3 cbr 1000 ------- 1 0.0 3.0 10 10
- 0.106133 2 3 cbr 1000 ------- 1 0.0 3.0 10 10
r 0.1068 0 1 cbr 1000 ------- 1 0.0 3.0 12 12
+ 0.1068 1 2 cbr 1000 ------- 1 0.0 3.0 12 12
- 0.1068 1 2 cbr 1000 ------- 1 0.0 3.0 12 12
+ 0.108 6 1 cbr 1000 ------- 2 6.0 7.0 1 15
- 0.108 6 1 cbr 1000 ------- 2 6.0 7.0 1 15
r 0.108933 2 3 cbr 1000 ------- 1 0.0 3.0 9 9
r 0.1108 6 1 cbr 1000 ------- 2 6.0 7.0 0 13
+ 0.1108 1 2 cbr 1000 ------- 2 6.0 7.0 0 13
+ 0.112 0 1 cbr 1000 ------- 1 0.0 3.0 14 16
- 0.112 0 1 cbr 1000 ------- 1 0.0 3.0 14 16
- 0.112133 1 2 cbr 1000 ------- 2 6.0 7.0 0 13
r 0.114133 1 2 cbr 1000 ------- 1 0.0 3.0 11 11
+ 0.114133 2 3 cbr 1000 ------- 1 0.0 3.0 11 11
- 0.114133 2 3 cbr 1000 ------- 1 0.0 3.0 11 11
r 0.1148 0 1 cbr 1000 ------- 1 0.0 3.0 13 14
+ 0.1148 1 2 cbr 1000 ------- 1 0.0 3.0 13 14
+ 0.116 6 1 cbr 1000 ------- 2 6.0 7.0 2 17
- 0.116 6 1 cbr 1000 ------- 2 6.0 7.0 2 17
r 0.116933 2 3 cbr 1000 ------- 1 0.0 3.0 10 10
- 0.117467 1 2 cbr 1000 ------- 1 0.0 3.0 13 14
r 0.1188 6 1 cbr 1000 ------- 2 6.0 7.0 1 15
+ 0.1188 1 2 cbr 1000 ------- 2 6.0 7.0 1 15
+ 0.12 0 1 cbr 1000 ------- 1 0.0 3.0 15 18
- 0.12 0 1 cbr 1000 ------- 1 0.0 3.0 15 18
r 0.122133 1 2 cbr 1000 ------- 1 0.0 3.0 12 12
+ 0.122133 2 3 cbr 1000 ------- 1 0.0 3.0 12 12
- 0.122133 2 3 cbr 1000 ------- 1 0.0 3.0 12 12
- 0.1228 1 2 cbr 1000 ------- 2 6.0 7.0 1 15
r 0.1228 0 1 cbr 1000 ------- 1 0.0 3.0 14 16
+ 0.1228 1 2 cbr 1000 ------- 1 0.0 3.0 14 16
+ 0.124 6 1 cbr 1000 ------- 2 6.0 7.0 3 19
- 0.124 6 1 cbr 1000 ------- 2 6.0 7.0 3 19
r 0.124933 2 3 cbr 1000 ------- 1 0.0 3.0 11 11
r 0.1268 6 1 cbr 1000 ------- 2 6.0 7.0 2 17
+ 0.1268 1 2 cbr 1000 ------- 2 6.0 7.0 2 17
r 0.127467 1 2 cbr 1000 ------- 2 6.0 7.0 0 13
+ 0.127467 2 7 cbr 1000 ------- 2 6.0 7.0 0 13
- 0.127467 2 7 cbr 1000 ------- 2 6.0 7.0 0 13
+ 0.128 0 1 cbr 1000 ------- 1 0.0 3.0 16 20
- 0.128 0 1 cbr 1000 ------- 1 0.0 3.0 16 20
- 0.128133 1 2 cbr 1000 ------- 1 0.0 3.0 14 16
r 0.1308 0 1 cbr 1000 ------- 1 0.0 3.0 15 18
+ 0.1308 1 2 cbr 1000 ------- 1 0.0 3.0 15 18
+ 0.132 6 1 cbr 1000 ------- 2 6.0 7.0 4 21
- 0.132 6 1 cbr 1000 ------- 2 6.0 7.0 4 21
r 0.1328 1 2 cbr 1000 ------- 1 0.0 3.0 13 14
+ 0.1328 2 3 cbr 1000 ------- 1 0.0 3.0 13 14
- 0.1328 2 3 cbr 1000 ------- 1 0.0 3.0 13 14
r 0.132933 2 3 cbr 1000 ------- 1 0.0 3.0 12 12
- 0.133467 1 2 cbr 1000 ------- 2 6.0 7.0 2 17
r 0.1348 6 1 cbr 1000 ------- 2 6.0 7.0 3 19
+ 0.1348 1 2 cbr 1000 ------- 2 6.0 7.0 3 19
+ 0.136 0 1 cbr 1000 ------- 1 0.0 3.0 17 22
- 0.136 0 1 cbr 1000 ------- 1 0.0 3.0 17 22
r 0.138133 1 2 cbr 1000 ------- 2 6.0 7.0 1 15
+ 0.138133 2 7 cbr 1000 ------- 2 6.0 7.0 1 15
- 0.138133 2 7 cbr 1000 ------- 2 6.0 7.0 1 15
r 0.138267 2 7 cbr 1000 ------- 2 6.0 7.0 0 13
- 0.1388 1 2 cbr 1000 ------- 1 0.0 3.0 15 18
r 0.1388 0 1 cbr 1000 ------- 1 0.0 3.0 16 20
+ 0.1388 1 2 cbr 1000 ------- 1 0.0 3.0 16 20
+ 0.14 6 1 cbr 1000 ------- 2 6.0 7.0 5 23
- 0.14 6 1 cbr 1000 ------- 2 6.0 7.0 5 23
r 0.1428 6 1 cbr 1000 ------- 2 6.0 7.0 4 21
+ 0.1428 1 2 cbr 1000 ------- 2 6.0 7.0 4 21
r 0.143467 1 2 cbr 1000 ------- 1 0.0 3.0 14 16
+ 0.143467 2 3 cbr 1000 ------- 1 0.0 3.0 14 16
- 0.143467 2 3 cbr 1000 ------- 1 0.0 3.0 14 16
r 0.1436 2 3 cbr 1000 ------- 1 0.0 3.0 13 14
+ 0.144 0 1 cbr 1000 ------- 1 0.0 3.0 18 24
- 0.144 0 1 cbr 1000 ------- 1 0.0 3.0 18 24
- 0.144133 1 2 cbr 1000 ------- 2 6.0 7.0 3 19
r 0.1468 0 1 cbr 1000 ------- 1 0.0 3.0 17 22
+ 0.1468 1 2 cbr 1000 ------- 1 0.0 3.0 17 22
+ 0.148 6 1 cbr 1000 ------- 2 6.0 7.0 6 25
- 0.148 6 1 cbr 1000 ------- 2 6.0 7.0 6 25
r 0.1488 1 2 cbr 1000 ------- 2 6.0 7.0 2 17
+ 0.1488 2 7 cbr 1000 ------- 2 6.0 7.0 2 17
- 0.1488 2 7 cbr 1000 ------- 2 6.0 7.0 2 17
r 0.148933 2 7 cbr 1000 ------- 2 6.0 7.0 1 15
- 0.149467 1 2 cbr 1000 ------- 1 0.0 3.0 16 20
r 0.1508 6 1 cbr 1000 ------- 2 6.0 7.0 5 23
+ 0.1508 1 2 cbr 1000 ------- 2 6.0 7.0 5 23
+ 0.152 0 1 cbr 1000 ------- 1 0.0 3.0 19 26
- 0.152 0 1 cbr 1000 ------- 1 0.0 3.0 19 26
r 0.154133 1 2 cbr 1000 ------- 1 0.0 3.0 15 18
+ 0.154133 2 3 cbr 1000 ------- 1 0.0 3.0 15 18
- 0.154133 2 3 cbr 1000 ------- 1 0.0 3.0 15 18
r 0.154267 2 3 cbr 1000 ------- 1 0.0 3.0 14 16
- 0.1548 1 2 cbr 1000 ------- 2 6.0 7.0 4 21
r 0.1548 0 1 cbr 1000 ------- 1 0.0 3.0 18 24
+ 0.1548 1 2 cbr 1000 ------- 1 0.0 3.0 18 24
+ 0.156 6 1 cbr 1000 ------- 2 6.0 7.0 7 27
- 0.156 6 1 cbr 1000 ------- 2 6.0 7.0 7 27
r 0.1588 6 1 cbr 1000 ------- 2 6.0 7.0 6 25
+ 0.1588 1 2 cbr 1000 ------- 2 6.0 7.0 6 25
r 0.159467 1 2 cbr 1000 ------- 2 6.0 7.0 3 19
+ 0.159467 2 7 cbr 1000 ------- 2 6.0 7.0 3 19
- 0.159467 2 7 cbr 1000 ------- 2 6.0 7.0 3 19
r 0.1596 2 7 cbr 1000 ------- 2 6.0 7.0 2 17
+ 0.16 0 1 cbr 1000 ------- 1 0.0 3.0 20 28
- 0.16 0 1 cbr 1000 ------- 1 0.0 3.0 20 28
- 0.160133 1 2 cbr 1000 ------- 1 0.0 3.0 17 22
r 0.1628 0 1 cbr 1000 ------- 1 0.0 3.0 19 26
+ 0.1628 1 2 cbr 1000 ------- 1 0.0 3.0 19 26
+ 0.164 6 1 cbr 1000 ------- 2 6.0 7.0 8 29
- 0.164 6 1 cbr 1000 ------- 2 6.0 7.0 8 29
r 0.1648 1 2 cbr 1000 ------- 1 0.0 3.0 16 20
+ 0.1648 2 3 cbr 1000 ------- 1 0.0 3.0 16 20
- 0.1648 2 3 cbr 1000 ------- 1 0.0 3.0 16 20
r 0.164933 2 3 cbr 1000 ------- 1 0.0 3.0 15 18
- 0.165467 1 2 cbr 1000 ------- 2 6.0 7.0 5 23
r 0.1668 6 1 cbr 1000 ------- 2 6.0 7.0 7 27
+ 0.1668 1 2 cbr 1000 ------- 2 6.0 7.0 7 27
+ 0.168 0 1 cbr 1000 ------- 1 0.0 3.0 21 30
- 0.168 0 1 cbr 1000 ------- 1 0.0 3.0 21 30
r 0.170133 1 2 cbr 1000 ------- 2 6.0 7.0 4 21
+ 0.170133 2 7 cbr 1000 ------- 2 6.0 7.0 4 21
- 0.170133 2 7 cbr 1000 ------- 2 6.0 7.0 4 21
r 0.170267 2 7 cbr 1000 ------- 2 6.0 7.0 3 19
- 0.1708 1 2 cbr 1000 ------- 1 0.0 3.0 18 24
r 0.1708 0 1 cbr 1000 ------- 1 0.0 3.0 20 28
+ 0.1708 1 2 cbr 1000 ------- 1 0.0 3.0 20 28
+ 0.172 6 1 cbr 1000 ------- 2 6.0 7.0 9 31
- 0.172 6 1 cbr 1000 ------- 2 6.0 7.0 9 31
r 0.1748 6 1 cbr 1000 ------- 2 6.0 7.0 8 29
+ 0.1748 1 2 cbr 1000 ------- 2 6.0 7.0 8 29
r 0.175467 1 2 cbr 1000 ------- 1 0.0 3.0 17 22
+ 0.175467 2 3 cbr 1000 ------- 1 0.0 3.0 17 22
- 0.175467 2 3 cbr 1000 ------- 1 0.0 3.0 17 22
r 0.1756 2 3 cbr 1000 ------- 1 0.0 3.0 16 20
+ 0.176 0 1 cbr 1000 ------- 1 0.0 3.0 22 32
- 0.176 0 1 cbr 1000 ------- 1 0.0 3.0 22 32
- 0.176133 1 2 cbr 1000 ------- 2 6.0 7.0 6 25
r 0.1788 0 1 cbr 1000 ------- 1 0.0 3.0 21 30
+ 0.1788 1 2 cbr 1000 ------- 1 0.0 3.0 21 30
+ 0.18 6 1 cbr 1000 ------- 2 6.0 7.0 10 33
- 0.18 6 1 cbr 1000 ------- 2 6.0 7.0 10 33
r 0.1808 1 2 cbr 1000 ------- 2 6.0 7.0 5 23
+ 0.1808 2 7 cbr 1000 ------- 2 6.0 7.0 5 23
- 0.1808 2 7 cbr 1000 ------- 2 6.0 7.0 5 23
r 0.180933 2 7 cbr 1000 ------- 2 6.0 7.0 4 21
- 0.181467 1 2 cbr 1000 ------- 1 0.0 3.0 19 26
r 0.1828 6 1 cbr 1000 ------- 2 6.0 7.0 9 31
+ 0.1828 1 2 cbr 1000 ------- 2 6.0 7.0 9 31
+ 0.184 0 1 cbr 1000 ------- 1 0.0 3.0 23 34
- 0.184 0 1 cbr 1000 ------- 1 0.0 3.0 23 34
r 0.186133 1 2 cbr 1000 ------- 1 0.0 3.0 18 24
+ 0.186133 2 3 cbr 1000 ------- 1 0.0 3.0 18 24
- 0.186133 2 3 cbr 1000 ------- 1 0.0 3.0 18 24
r 0.186267 2 3 cbr 1000 ------- 1 0.0 3.0 17 22
- 0.1868 1 2 cbr 1000 ------- 2 6.0 7.0 7 27
r 0.1868 0 1 cbr 1000 ------- 1 0.0 3.0 22 32
+ 0.1868 1 2 cbr 1000 ------- 1 0.0 3.0 22 32
+ 0.188 6 1 cbr 1000 ------- 2 6.0 7.0 11 35
- 0.188 6 1 cbr 1000 ------- 2 6.0 7.0 11 35
r 0.1908 6 1 cbr 1000 ------- 2 6.0 7.0 10 33
+ 0.1908 1 2 cbr 1000 ------- 2 6.0 7.0 10 33
r 0.191467 1 2 cbr 1000 ------- 2 6.0 7.0 6 25
+ 0.191467 2 7 cbr 1000 ------- 2 6.0 7.0 6 25
- 0.191467 2 7 cbr 1000 ------- 2 6.0 7.0 6 25
r 0.1916 2 7 cbr 1000 ------- 2 6.0 7.0 5 23
+ 0.192 0 1 cbr 1000 ------- 1 0.0 3.0 24 36
- 0.192 0 1 cbr 1000 ------- 1 0.0 3.0 24 36
- 0.192133 1 2 cbr 1000 ------- 1 0.0 3.0 20 28
r 0.1948 0 1 cbr 1000 ------- 1 0.0 3.0 23 34
+ 0.1948 1 2 cbr 1000 ------- 1 0.0 3.0 23 34
+ 0.196 6 1 cbr 1000 ------- 2 6.0 7.0 12 37
- 0.196 6 1 cbr 1000 ------- 2 6.0 7.0 12 37
r 0.1968 1 2 cbr 1000 ------- 1 0.0 3.0 19 26
+ 0.1968 2 3 cbr 1000 ------- 1 0.0 3.0 19 26
- 0.1968 2 3 cbr 1000 ------- 1 0.0 3.0 19 26
r 0.196933 2 3 cbr 1000 ------- 1 0.0 3.0 18 24
- 0.197467 1 2 cbr 1000 ------- 2 6.0 7.0 8 29
r 0.1988 6 1 cbr 1000 ------- 2 6.0 7.0 11 35
+ 0.1988 1 2 cbr 1000 ------- 2 6.0 7.0 11 35
+ 0.2 4 1 cbr 500 ------- 3 4.0 5.0 0 38
- 0.2 4 1 cbr 500 ------- 3 4.0 5.0 0 38
+ 0.2 0 1 cbr 1000 ------- 1 0.0 3.0 25 39
- 0.2 0 1 cbr 1000 ------- 1 0.0 3.0 25 39
r 0.202133 1 2 cbr 1000 ------- 2 6.0 7.0 7 27
+ 0.202133 2 7 cbr 1000 ------- 2 6.0 7.0 7 27
- 0.202133 2 7 cbr 1000 ------- 2 6.0 7.0 7 27
r 0.202267 2 7 cbr 1000 ------- 2 6.0 7.0 6 25
- 0.2028 1 2 cbr 1000 ------- 1 0.0 3.0 21 30
r 0.2028 0 1 cbr 1000 ------- 1 0.0 3.0 24 36
+ 0.2028 1 2 cbr 1000 ------- 1 0.0 3.0 24 36
+ 0.204 6 1 cbr 1000 ------- 2 6.0 7.0 13 40
- 0.204 6 1 cbr 1000 ------- 2 6.0 7.0 13 40
+ 0.206667 4 1 cbr 500 ------- 3 4.0 5.0 1 41
- 0.206667 4 1 cbr 500 ------- 3 4.0 5.0 1 41
r 0.2068 6 1 cbr 1000 ------- 2 6.0 7.0 12 37
+ 0.2068 1 2 cbr 1000 ------- 2 6.0 7.0 12 37
r 0.207467 1 2 cbr 1000 ------- 1 0.0 3.0 20 28
+ 0.207467 2 3 cbr 1000 ------- 1 0.0 3.0 20 28
- 0.207467 2 3 cbr 1000 ------- 1 0.0 3.0 20 28
r 0.2076 2 3 cbr 1000 ------- 1 0.0 3.0 19 26
+ 0.208 0 1 cbr 1000 ------- 1 0.0 3.0 26 42
- 0.208 0 1 cbr 1000 ------- 1 0.0 3.0 26 42
- 0.208133 1 2 cbr 1000 ------- 2 6.0 7.0 9 31
r 0.2104 4 1 cbr 500 ------- 3 4.0 5.0 0 38
+ 0.2104 1 2 cbr 500 ------- 3 4.0 5.0 0 38
r 0.2108 0 1 cbr 1000 ------- 1 0.0 3.0 25 39
+ 0.2108 1 2 cbr 1000 ------- 1 0.0 3.0 25 39
+ 0.212 6 1 cbr 1000 ------- 2 6.0 7.0 14 43
- 0.212 6 1 cbr 1000 ------- 2 6.0 7.0 14 43
r 0.2128 1 2 cbr 1000 ------- 2 6.0 7.0 8 29
+ 0.2128 2 7 cbr 1000 ------- 2 6.0 7.0 8 29
- 0.2128 2 7 cbr 1000 ------- 2 6.0 7.0 8 29
r 0.212933 2 7 cbr 1000 ------- 2 6.0 7.0 7 27
+ 0.213333 4 1 cbr 500 ------- 3 4.0 5.0 2 44
- 0.213333 4 1 cbr 500 ------- 3 4.0 5.0 2 44
- 0.213467 1 2 cbr 1000 ------- 1 0.0 3.0 22 32
r 0.2148 6 1 cbr 1000 ------- 2 6.0 7.0 13 40
+ 0.2148 1 2 cbr 1000 ------- 2 6.0 7.0 13 40
+ 0.216 0 1 cbr 1000 ------- 1 0.0 3.0 27 45
- 0.216 0 1 cbr 1000 ------- 1 0.0 3.0 27 45
r 0.217067 4 1 cbr 500 ------- 3 4.0 5.0 1 41
+ 0.217067 1 2 cbr 500 ------- 3 4.0 5.0 1 41
r 0.218133 1 2 cbr 1000 ------- 1 0.0 3.0 21 30
+ 0.218133 2 3 cbr 1000 ------- 1 0.0 3.0 21 30
- 0.218133 2 3 cbr 1000 ------- 1 0.0 3.0 21 30
r 0.218267 2 3 cbr 1000 ------- 1 0.0 3.0 20 28
- 0.2188 1 2 cbr 1000 ------- 2 6.0 7.0 10 33
r 0.2188 0 1 cbr 1000 ------- 1 0.0 3.0 26 42
+ 0.2188 1 2 cbr 1000 ------- 1 0.0 3.0 26 42
+ 0.22 4 1 cbr 500 ------- 3 4.0 5.0 3 46
- 0.22 4 1 cbr 500 ------- 3 4.0 5.0 3 46
+ 0.22 6 1 cbr 1000 ------- 2 6.0 7.0 15 47
- 0.22 6 1 cbr 1000 ------- 2 6.0 7.0 15 47
r 0.2228 6 1 cbr 1000 ------- 2 6.0 7.0 14 43
+ 0.2228 1 2 cbr 1000 ------- 2 6.0 7.0 14 43
r 0.223467 1 2 cbr 1000 ------- 2 6.0 7.0 9 31
+ 0.223467 2 7 cbr 1000 ------- 2 6.0 7.0 9 31
- 0.223467 2 7 cbr 1000 ------- 2 6.0 7.0 9 31
r 0.2236 2 7 cbr 1000 ------- 2 6.0 7.0 8 29
r 0.223733 4 1 cbr 500 ------- 3 4.0 5.0 2 44
+ 0.223733 1 2 cbr 500 ------- 3 4.0 5.0 2 44
+ 0.224 0 1 cbr 1000 ------- 1 0.0 3.0 28 48
- 0.224 0 1 cbr 1000 ------- 1 0.0 3.0 28 48
- 0.224133 1 2 cbr 1000 ------- 1 0.0 3.0 23 34
+ 0.226667 4 1 cbr 500 ------- 3 4.0 5.0 4 49
- 0.226667 4 1 cbr 500 ------- 3 4.0 5.0 4 49
r 0.2268 0 1 cbr 1000 ------- 1 0.0 3.0 27 45
+ 0.2268 1 2 cbr 1000 ------- 1 0.0 3.0 27 45
+ 0.228 6 1 cbr 1000 ------- 2 6.0 7.0 16 50
- 0.228 6 1 cbr 1000 ------- 2 6.0 7.0 16 50
r 0.2288 1 2 cbr 1000 ------- 1 0.0 3.0 22 32
+ 0.2288 2 3 cbr 1000 ------- 1 0.0 3.0 22 32
- 0.2288 2 3 cbr 1000 ------- 1 0.0 3.0 22 32
r 0.228933 2 3 cbr 1000 ------- 1 0.0 3.0 21 30
- 0.229467 1 2 cbr 1000 ------- 2 6.0 7.0 11 35
r 0.2304 4 1 cbr 500 ------- 3 4.0 5.0 3 46
+ 0.2304 1 2 cbr 500 ------- 3 4.0 5.0 3 46
r 0.2308 6 1 cbr 1000 ------- 2 6.0 7.0 15 47
+ 0.2308 1 2 cbr 1000 ------- 2 6.0 7.0 15 47
+ 0.232 0 1 cbr 1000 ------- 1 0.0 3.0 29 51
- 0.232 0 1 cbr 1000 ------- 1 0.0 3.0 29 51
+ 0.233333 4 1 cbr 500 ------- 3 4.0 5.0 5 52
- 0.233333 4 1 cbr 500 ------- 3 4.0 5.0 5 52
r 0.234133 1 2 cbr 1000 ------- 2 6.0 7.0 10 33
+ 0.234133 2 7 cbr 1000 ------- 2 6.0 7.0 10 33
- 0.234133 2 7 cbr 1000 ------- 2 6.0 7.0 10 33
r 0.234267 2 7 cbr 1000 ------- 2 6.0 7.0 9 31
- 0.2348 1 2 cbr 1000 ------- 1 0.0 3.0 24 36
r 0.2348 0 1 cbr 1000 ------- 1 0.0 3.0 28 48
+ 0.2348 1 2 cbr 1000 ------- 1 0.0 3.0 28 48
+ 0.236 6 1 cbr 1000 ------- 2 6.0 7.0 17 53
- 0.236 6 1 cbr 1000 ------- 2 6.0 7.0 17 53
r 0.237067 4 1 cbr 500 ------- 3 4.0 5.0 4 49
+ 0.237067 1 2 cbr 500 ------- 3 4.0 5.0 4 49
r 0.2388 6 1 cbr 1000 ------- 2 6.0 7.0 16 50
+ 0.2388 1 2 cbr 1000 ------- 2 6.0 7.0 16 50
r 0.239467 1 2 cbr 1000 ------- 1 0.0 3.0 23 34
+ 0.239467 2 3 cbr 1000 ------- 1 0.0 3.0 23 34
- 0.239467 2 3 cbr 1000 ------- 1 0.0 3.0 23 34
r 0.2396 2 3 cbr 1000 ------- 1 0.0 3.0 22 32
+ 0.24 4 1 cbr 500 ------- 3 4.0 5.0 6 54
- 0.24 4 1 cbr 500 ------- 3 4.0 5.0 6 54
+ 0.24 0 1 cbr 1000 ------- 1 0.0 3.0 30 55
- 0.24 0 1 cbr 1000 ------- 1 0.0 3.0 30 55
- 0.240133 1 2 cbr 1000 ------- 2 6.0 7.0 12 37
r 0.2428 0 1 cbr 1000 ------- 1 0.0 3.0 29 51
+ 0.2428 1 2 cbr 1000 ------- 1 0.0 3.0 29 51
r 0.243733 4 1 cbr 500 ------- 3 4.0 5.0 5 52
+ 0.243733 1 2 cbr 500 ------- 3 4.0 5.0 5 52
+ 0.244 6 1 cbr 1000 ------- 2 6.0 7.0 18 56
- 0.244 6 1 cbr 1000 ------- 2 6.0 7.0 18 56
r 0.2448 1 2 cbr 1000 ------- 2 6.0 7.0 11 35
+ 0.2448 2 7 cbr 1000 ------- 2 6.0 7.0 11 35
- 0.2448 2 7 cbr 1000 ------- 2 6.0 7.0 11 35
r 0.244933 2 7 cbr 1000 ------- 2 6.0 7.0 10 33
- 0.245467 1 2 cbr 500 ------- 3 4.0 5.0 0 38
+ 0.246667 4 1 cbr 500 ------- 3 4.0 5.0 7 57
- 0.246667 4 1 cbr 500 ------- 3 4.0 5.0 7 57
r 0.2468 6 1 cbr 1000 ------- 2 6.0 7.0 17 53
+ 0.2468 1 2 cbr 1000 ------- 2 6.0 7.0 17 53
+ 0.248 0 1 cbr 1000 ------- 1 0.0 3.0 31 58
- 0.248 0 1 cbr 1000 ------- 1 0.0 3.0 31 58
- 0.248133 1 2 cbr 1000 ------- 1 0.0 3.0 25 39
r 0.250133 1 2 cbr 1000 ------- 1 0.0 3.0 24 36
+ 0.250133 2 3 cbr 1000 ------- 1 0.0 3.0 24 36
- 0.250133 2 3 cbr 1000 ------- 1 0.0 3.0 24 36
r 0.250267 2 3 cbr 1000 ------- 1 0.0 3.0 23 34
r 0.2504 4 1 cbr 500 ------- 3 4.0 5.0 6 54
+ 0.2504 1 2 cbr 500 ------- 3 4.0 5.0 6 54
r 0.2508 0 1 cbr 1000 ------- 1 0.0 3.0 30 55
+ 0.2508 1 2 cbr 1000 ------- 1 0.0 3.0 30 55
+ 0.252 6 1 cbr 1000 ------- 2 6.0 7.0 19 59
- 0.252 6 1 cbr 1000 ------- 2 6.0 7.0 19 59
+ 0.253333 4 1 cbr 500 ------- 3 4.0 5.0 8 60
- 0.253333 4 1 cbr 500 ------- 3 4.0 5.0 8 60
- 0.253467 1 2 cbr 1000 ------- 2 6.0 7.0 13 40
r 0.2548 6 1 cbr 1000 ------- 2 6.0 7.0 18 56
+ 0.2548 1 2 cbr 1000 ------- 2 6.0 7.0 18 56
r 0.255467 1 2 cbr 1000 ------- 2 6.0 7.0 12 37
+ 0.255467 2 7 cbr 1000 ------- 2 6.0 7.0 12 37
- 0.255467 2 7 cbr 1000 ------- 2 6.0 7.0 12 37
r 0.2556 2 7 cbr 1000 ------- 2 6.0 7.0 11 35
+ 0.256 0 1 cbr 1000 ------- 1 0.0 3.0 32 61
- 0.256 0 1 cbr 1000 ------- 1 0.0 3.0 32 61
r 0.257067 4 1 cbr 500 ------- 3 4.0 5.0 7 57
+ 0.257067 1 2 cbr 500 ------- 3 4.0 5.0 7 57
r 0.258133 1 2 cbr 500 ------- 3 4.0 5.0 0 38
+ 0.258133 2 5 cbr 500 ------- 3 4.0 5.0 0 38
- 0.258133 2 5 cbr 500 ------- 3 4.0 5.0 0 38
- 0.2588 1 2 cbr 500 ------- 3 4.0 5.0 1 41
r 0.2588 0 1 cbr 1000 ------- 1 0.0 3.0 31 58
+ 0.2588 1 2 cbr 1000 ------- 1 0.0 3.0 31 58
+ 0.26 4 1 cbr 500 ------- 3 4.0 5.0 9 62
- 0.26 4 1 cbr 500 ------- 3 4.0 5.0 9 62
+ 0.26 6 1 cbr 1000 ------- 2 6.0 7.0 20 63
- 0.26 6 1 cbr 1000 ------- 2 6.0 7.0 20 63
r 0.260933 2 3 cbr 1000 ------- 1 0.0 3.0 24 36
- 0.261467 1 2 cbr 1000 ------- 1 0.0 3.0 26 42
r 0.2628 6 1 cbr 1000 ------- 2 6.0 7.0 19 59
+ 0.2628 1 2 cbr 1000 ------- 2 6.0 7.0 19 59
r 0.263467 1 2 cbr 1000 ------- 1 0.0 3.0 25 39
+ 0.263467 2 3 cbr 1000 ------- 1 0.0 3.0 25 39
- 0.263467 2 3 cbr 1000 ------- 1 0.0 3.0 25 39
r 0.263733 4 1 cbr 500 ------- 3 4.0 5.0 8 60
+ 0.263733 1 2 cbr 500 ------- 3 4.0 5.0 8 60
+ 0.264 0 1 cbr 1000 ------- 1 0.0 3.0 33 64
- 0.264 0 1 cbr 1000 ------- 1 0.0 3.0 33 64
r 0.266267 2 7 cbr 1000 ------- 2 6.0 7.0 12 37
+ 0.266667 4 1 cbr 500 ------- 3 4.0 5.0 10 65
- 0.266667 4 1 cbr 500 ------- 3 4.0 5.0 10 65
- 0.2668 1 2 cbr 1000 ------- 2 6.0 7.0 14 43
r 0.2668 0 1 cbr 1000 ------- 1 0.0 3.0 32 61
+ 0.2668 1 2 cbr 1000 ------- 1 0.0 3.0 32 61
+ 0.268 6 1 cbr 1000 ------- 2 6.0 7.0 21 66
- 0.268 6 1 cbr 1000 ------- 2 6.0 7.0 21 66
r 0.268533 2 5 cbr 500 ------- 3 4.0 5.0 0 38
r 0.2688 1 2 cbr 1000 ------- 2 6.0 7.0 13 40
+ 0.2688 2 7 cbr 1000 ------- 2 6.0 7.0 13 40
- 0.2688 2 7 cbr 1000 ------- 2 6.0 7.0 13 40
r 0.2704 4 1 cbr 500 ------- 3 4.0 5.0 9 62
+ 0.2704 1 2 cbr 500 ------- 3 4.0 5.0 9 62
r 0.2708 6 1 cbr 1000 ------- 2 6.0 7.0 20 63
+ 0.2708 1 2 cbr 1000 ------- 2 6.0 7.0 20 63
r 0.271467 1 2 cbr 500 ------- 3 4.0 5.0 1 41
+ 0.271467 2 5 cbr 500 ------- 3 4.0 5.0 1 41
- 0.271467 2 5 cbr 500 ------- 3 4.0 5.0 1 41
+ 0.272 0 1 cbr 1000 ------- 1 0.0 3.0 34 67
- 0.272 0 1 cbr 1000 ------- 1 0.0 3.0 34 67
- 0.272133 1 2 cbr 500 ------- 3 4.0 5.0 2 44
+ 0.273333 4 1 cbr 500 ------- 3 4.0 5.0 11 68
- 0.273333 4 1 cbr 500 ------- 3 4.0 5.0 11 68
r 0.274267 2 3 cbr 1000 ------- 1 0.0 3.0 25 39
- 0.2748 1 2 cbr 1000 ------- 1 0.0 3.0 27 45
r 0.2748 0 1 cbr 1000 ------- 1 0.0 3.0 33 64
+ 0.2748 1 2 cbr 1000 ------- 1 0.0 3.0 33 64
+ 0.276 6 1 cbr 1000 ------- 2 6.0 7.0 22 69
- 0.276 6 1 cbr 1000 ------- 2 6.0 7.0 22 69
r 0.2768 1 2 cbr 1000 ------- 1 0.0 3.0 26 42
+ 0.2768 2 3 cbr 1000 ------- 1 0.0 3.0 26 42
- 0.2768 2 3 cbr 1000 ------- 1 0.0 3.0 26 42
r 0.277067 4 1 cbr 500 ------- 3 4.0 5.0 10 65
+ 0.277067 1 2 cbr 500 ------- 3 4.0 5.0 10 65
r 0.2788 6 1 cbr 1000 ------- 2 6.0 7.0 21 66
+ 0.2788 1 2 cbr 1000 ------- 2 6.0 7.0 21 66
r 0.2796 2 7 cbr 1000 ------- 2 6.0 7.0 13 40
+ 0.28 4 1 cbr 500 ------- 3 4.0 5.0 12 70
- 0.28 4 1 cbr 500 ------- 3 4.0 5.0 12 70
+ 0.28 0 1 cbr 1000 ------- 1 0.0 3.0 35 71
- 0.28 0 1 cbr 1000 ------- 1 0.0 3.0 35 71
- 0.280133 1 2 cbr 500 ------- 3 4.0 5.0 3 46
r 0.281867 2 5 cbr 500 ------- 3 4.0 5.0 1 41
r 0.282133 1 2 cbr 1000 ------- 2 6.0 7.0 14 43
+ 0.282133 2 7 cbr 1000 ------- 2 6.0 7.0 14 43
- 0.282133 2 7 cbr 1000 ------- 2 6.0 7.0 14 43
- 0.2828 1 2 cbr 1000 ------- 2 6.0 7.0 15 47
r 0.2828 0 1 cbr 1000 ------- 1 0.0 3.0 34 67
+ 0.2828 1 2 cbr 1000 ------- 1 0.0 3.0 34 67
r 0.283733 4 1 cbr 500 ------- 3 4.0 5.0 11 68
+ 0.283733 1 2 cbr 500 ------- 3 4.0 5.0 11 68
+ 0.284 6 1 cbr 1000 ------- 2 6.0 7.0 23 72
- 0.284 6 1 cbr 1000 ------- 2 6.0 7.0 23 72
r 0.2848 1 2 cbr 500 ------- 3 4.0 5.0 2 44
+ 0.2848 2 5 cbr 500 ------- 3 4.0 5.0 2 44
- 0.2848 2 5 cbr 500 ------- 3 4.0 5.0 2 44
+ 0.286667 4 1 cbr 500 ------- 3 4.0 5.0 13 73
- 0.286667 4 1 cbr 500 ------- 3 4.0 5.0 13 73
r 0.2868 6 1 cbr 1000 ------- 2 6.0 7.0 22 69
+ 0.2868 1 2 cbr 1000 ------- 2 6.0 7.0 22 69
r 0.2876 2 3 cbr 1000 ------- 1 0.0 3.0 26 42
+ 0.288 0 1 cbr 1000 ------- 1 0.0 3.0 36 74
- 0.288 0 1 cbr 1000 ------- 1 0.0 3.0 36 74
- 0.288133 1 2 cbr 1000 ------- 1 0.0 3.0 28 48
r 0.290133 1 2 cbr 1000 ------- 1 0.0 3.0 27 45
+ 0.290133 2 3 cbr 1000 ------- 1 0.0 3.0 27 45
- 0.290133 2 3 cbr 1000 ------- 1 0.0 3.0 27 45
r 0.2904 4 1 cbr 500 ------- 3 4.0 5.0 12 70
+ 0.2904 1 2 cbr 500 ------- 3 4.0 5.0 12 70
r 0.2908 0 1 cbr 1000 ------- 1 0.0 3.0 35 71
+ 0.2908 1 2 cbr 1000 ------- 1 0.0 3.0 35 71
+ 0.292 6 1 cbr 1000 ------- 2 6.0 7.0 24 75
- 0.292 6 1 cbr 1000 ------- 2 6.0 7.0 24 75
r 0.2928 1 2 cbr 500 ------- 3 4.0 5.0 3 46
+ 0.2928 2 5 cbr 500 ------- 3 4.0 5.0 3 46
- 0.2928 2 5 cbr 500 ------- 3 4.0 5.0 3 46
r 0.292933 2 7 cbr 1000 ------- 2 6.0 7.0 14 43
+ 0.293333 4 1 cbr 500 ------- 3 4.0 5.0 14 76
- 0.293333 4 1 cbr 500 ------- 3 4.0 5.0 14 76
- 0.293467 1 2 cbr 500 ------- 3 4.0 5.0 4 49
r 0.2948 6 1 cbr 1000 ------- 2 6.0 7.0 23 72
+ 0.2948 1 2 cbr 1000 ------- 2 6.0 7.0 23 72
r 0.2952 2 5 cbr 500 ------- 3 4.0 5.0 2 44
+ 0.296 0 1 cbr 1000 ------- 1 0.0 3.0 37 77
- 0.296 0 1 cbr 1000 ------- 1 0.0 3.0 37 77
- 0.296133 1 2 cbr 1000 ------- 2 6.0 7.0 16 50
r 0.297067 4 1 cbr 500 ------- 3 4.0 5.0 13 73
+ 0.297067 1 2 cbr 500 ------- 3 4.0 5.0 13 73
r 0.298133 1 2 cbr 1000 ------- 2 6.0 7.0 15 47
+ 0.298133 2 7 cbr 1000 ------- 2 6.0 7.0 15 47
- 0.298133 2 7 cbr 1000 ------- 2 6.0 7.0 15 47
r 0.2988 0 1 cbr 1000 ------- 1 0.0 3.0 36 74
+ 0.2988 1 2 cbr 1000 ------- 1 0.0 3.0 36 74
+ 0.3 4 1 cbr 500 ------- 3 4.0 5.0 15 78
- 0.3 4 1 cbr 500 ------- 3 4.0 5.0 15 78
+ 0.3 6 1 cbr 1000 ------- 2 6.0 7.0 25 79
- 0.3 6 1 cbr 1000 ------- 2 6.0 7.0 25 79
r 0.300933 2 3 cbr 1000 ------- 1 0.0 3.0 27 45
- 0.301467 1 2 cbr 1000 ------- 1 0.0 3.0 29 51
r 0.3028 6 1 cbr 1000 ------- 2 6.0 7.0 24 75
+ 0.3028 1 2 cbr 1000 ------- 2 6.0 7.0 24 75
r 0.3032 2 5 cbr 500 ------- 3 4.0 5.0 3 46
r 0.303467 1 2 cbr 1000 ------- 1 0.0 3.0 28 48
+ 0.303467 2 3 cbr 1000 ------- 1 0.0 3.0 28 48
- 0.303467 2 3 cbr 1000 ------- 1 0.0 3.0 28 48
r 0.303733 4 1 cbr 500 ------- 3 4.0 5.0 14 76
+ 0.303733 1 2 cbr 500 ------- 3 4.0 5.0 14 76
+ 0.304 0 1 cbr 1000 ------- 1 0.0 3.0 38 80
- 0.304 0 1 cbr 1000 ------- 1 0.0 3.0 38 80
r 0.306133 1 2 cbr 500 ------- 3 4.0 5.0 4 49
+ 0.306133 2 5 cbr 500 ------- 3 4.0 5.0 4 49
- 0.306133 2 5 cbr 500 ------- 3 4.0 5.0 4 49
+ 0.306667 4 1 cbr 500 ------- 3 4.0 5.0 16 81
- 0.306667 4 1 cbr 500 ------- 3 4.0 5.0 16 81
- 0.3068 1 2 cbr 500 ------- 3 4.0 5.0 5 52
r 0.3068 0 1 cbr 1000 ------- 1 0.0 3.0 37 77
+ 0.3068 1 2 cbr 1000 ------- 1 0.0 3.0 37 77
+ 0.308 6 1 cbr 1000 ------- 2 6.0 7.0 26 82
- 0.308 6 1 cbr 1000 ------- 2 6.0 7.0 26 82
r 0.308933 2 7 cbr 1000 ------- 2 6.0 7.0 15 47
- 0.309467 1 2 cbr 1000 ------- 2 6.0 7.0 17 53
r 0.3104 4 1 cbr 500 ------- 3 4.0 5.0 15 78
+ 0.3104 1 2 cbr 500 ------- 3 4.0 5.0 15 78
r 0.3108 6 1 cbr 1000 ------- 2 6.0 7.0 25 79
+ 0.3108 1 2 cbr 1000 ------- 2 6.0 7.0 25 79
r 0.311467 1 2 cbr 1000 ------- 2 6.0 7.0 16 50
+ 0.311467 2 7 cbr 1000 ------- 2 6.0 7.0 16 50
- 0.311467 2 7 cbr 1000 ------- 2 6.0 7.0 16 50
+ 0.312 0 1 cbr 1000 ------- 1 0.0 3.0 39 83
- 0.312 0 1 cbr 1000 ------- 1 0.0 3.0 39 83
+ 0.313333 4 1 cbr 500 ------- 3 4.0 5.0 17 84
- 0.313333 4 1 cbr 500 ------- 3 4.0 5.0 17 84
r 0.314267 2 3 cbr 1000 ------- 1 0.0 3.0 28 48
- 0.3148 1 2 cbr 500 ------- 3 4.0 5.0 6 54
r 0.3148 0 1 cbr 1000 ------- 1 0.0 3.0 38 80
+ 0.3148 1 2 cbr 1000 ------- 1 0.0 3.0 38 80
+ 0.316 6 1 cbr 1000 ------- 2 6.0 7.0 27 85
- 0.316 6 1 cbr 1000 ------- 2 6.0 7.0 27 85
r 0.316533 2 5 cbr 500 ------- 3 4.0 5.0 4 49
r 0.3168 1 2 cbr 1000 ------- 1 0.0 3.0 29 51
+ 0.3168 2 3 cbr 1000 ------- 1 0.0 3.0 29 51
- 0.3168 2 3 cbr 1000 ------- 1 0.0 3.0 29 51
r 0.317067 4 1 cbr 500 ------- 3 4.0 5.0 16 81
+ 0.317067 1 2 cbr 500 ------- 3 4.0 5.0 16 81
- 0.317467 1 2 cbr 1000 ------- 1 0.0 3.0 30 55
r 0.3188 6 1 cbr 1000 ------- 2 6.0 7.0 26 82
+ 0.3188 1 2 cbr 1000 ------- 2 6.0 7.0 26 82
r 0.319467 1 2 cbr 500 ------- 3 4.0 5.0 5 52
+ 0.319467 2 5 cbr 500 ------- 3 4.0 5.0 5 52
- 0.319467 2 5 cbr 500 ------- 3 4.0 5.0 5 52
+ 0.32 4 1 cbr 500 ------- 3 4.0 5.0 18 86
- 0.32 4 1 cbr 500 ------- 3 4.0 5.0 18 86
+ 0.32 0 1 cbr 1000 ------- 1 0.0 3.0 40 87
- 0.32 0 1 cbr 1000 ------- 1 0.0 3.0 40 87
r 0.322267 2 7 cbr 1000 ------- 2 6.0 7.0 16 50
- 0.3228 1 2 cbr 1000 ------- 2 6.0 7.0 18 56
r 0.3228 0 1 cbr 1000 ------- 1 0.0 3.0 39 83
+ 0.3228 1 2 cbr 1000 ------- 1 0.0 3.0 39 83
r 0.323733 4 1 cbr 500 ------- 3 4.0 5.0 17 84
+ 0.323733 1 2 cbr 500 ------- 3 4.0 5.0 17 84
+ 0.324 6 1 cbr 1000 ------- 2 6.0 7.0 28 88
- 0.324 6 1 cbr 1000 ------- 2 6.0 7.0 28 88
r 0.3248 1 2 cbr 1000 ------- 2 6.0 7.0 17 53
+ 0.3248 2 7 cbr 1000 ------- 2 6.0 7.0 17 53
- 0.3248 2 7 cbr 1000 ------- 2 6.0 7.0 17 53
+ 0.326667 4 1 cbr 500 ------- 3 4.0 5.0 19 89
- 0.326667 4 1 cbr 500 ------- 3 4.0 5.0 19 89
r 0.3268 6 1 cbr 1000 ------- 2 6.0 7.0 27 85
+ 0.3268 1 2 cbr 1000 ------- 2 6.0 7.0 27 85
r 0.327467 1 2 cbr 500 ------- 3 4.0 5.0 6 54
+ 0.327467 2 5 cbr 500 ------- 3 4.0 5.0 6 54
- 0.327467 2 5 cbr 500 ------- 3 4.0 5.0 6 54
r 0.3276 2 3 cbr 1000 ------- 1 0.0 3.0 29 51
+ 0.328 0 1 cbr 1000 ------- 1 0.0 3.0 41 90
- 0.328 0 1 cbr 1000 ------- 1 0.0 3.0 41 90
- 0.328133 1 2 cbr 500 ------- 3 4.0 5.0 7 57
r 0.329867 2 5 cbr 500 ------- 3 4.0 5.0 5 52
r 0.3304 4 1 cbr 500 ------- 3 4.0 5.0 18 86
+ 0.3304 1 2 cbr 500 ------- 3 4.0 5.0 18 86
- 0.3308 1 2 cbr 1000 ------- 1 0.0 3.0 31 58
r 0.3308 0 1 cbr 1000 ------- 1 0.0 3.0 40 87
+ 0.3308 1 2 cbr 1000 ------- 1 0.0 3.0 40 87
+ 0.332 6 1 cbr 1000 ------- 2 6.0 7.0 29 91
- 0.332 6 1 cbr 1000 ------- 2 6.0 7.0 29 91
r 0.3328 1 2 cbr 1000 ------- 1 0.0 3.0 30 55
+ 0.3328 2 3 cbr 1000 ------- 1 0.0 3.0 30 55
- 0.3328 2 3 cbr 1000 ------- 1 0.0 3.0 30 55
+ 0.333333 4 1 cbr 500 ------- 3 4.0 5.0 20 92
- 0.333333 4 1 cbr 500 ------- 3 4.0 5.0 20 92
r 0.3348 6 1 cbr 1000 ------- 2 6.0 7.0 28 88
+ 0.3348 1 2 cbr 1000 ------- 2 6.0 7.0 28 88
r 0.3356 2 7 cbr 1000 ------- 2 6.0 7.0 17 53
+ 0.336 0 1 cbr 1000 ------- 1 0.0 3.0 42 93
- 0.336 0 1 cbr 1000 ------- 1 0.0 3.0 42 93
- 0.336133 1 2 cbr 1000 ------- 2 6.0 7.0 19 59
r 0.337067 4 1 cbr 500 ------- 3 4.0 5.0 19 89
+ 0.337067 1 2 cbr 500 ------- 3 4.0 5.0 19 89
r 0.337867 2 5 cbr 500 ------- 3 4.0 5.0 6 54
r 0.338133 1 2 cbr 1000 ------- 2 6.0 7.0 18 56
+ 0.338133 2 7 cbr 1000 ------- 2 6.0 7.0 18 56
- 0.338133 2 7 cbr 1000 ------- 2 6.0 7.0 18 56
r 0.3388 0 1 cbr 1000 ------- 1 0.0 3.0 41 90
+ 0.3388 1 2 cbr 1000 ------- 1 0.0 3.0 41 90