V -t * -v 1.0a5 -a 0
A -t * -n 1 -p 0 -o 0xffffffff -c 31 -a 1
A -t * -h 1 -m 2147483647 -s 0
n -t * -a 4 -s 4 -S UP -v circle -c black -i black
n -t * -a 0 -s 0 -S UP -v circle -c black -i black
n -t * -a 5 -s 5 -S UP -v circle -c black -i black
n -t * -a 1 -s 1 -S UP -v circle -c black -i black
n -t * -a 2 -s 2 -S UP -v circle -c black -i black
n -t * -a 3 -s 3 -S UP -v circle -c black -i black
l -t * -s 0 -d 1 -S UP -r 10000000 -D 0.01 -c black
l -t * -s 1 -d 4 -S UP -r 10000000 -D 0.01 -c black
l -t * -s 1 -d 2 -S UP -r 1500000 -D 0.01 -c black
l -t * -s 2 -d 3 -S UP -r 10000000 -D 0.01 -c black
l -t * -s 2 -d 5 -S UP -r 10000000 -D 0.01 -c black
+ -t 0 -s 0 -d 1 -p tcp -e 40 -c 1 -i 0 -a 1 -x {0.0 3.0 0 ------- null}
- -t 0 -s 0 -d 1 -p tcp -e 40 -c 1 -i 0 -a 1 -x {0.0 3.0 0 ------- null}
h -t 0 -s 0 -d 1 -p tcp -e 40 -c 1 -i 0 -a 1 -x {0.0 3.0 -1 ------- null}
r -t 0.010032 -s 0 -d 1 -p tcp -e 40 -c 1 -i 0 -a 1 -x {0.0 3.0 0 ------- null}
+ -t 0.010032 -s 1 -d 2 -p tcp -e 40 -c 1 -i 0 -a 1 -x {0.0 3.0 0 ------- null}
- -t 0.010032 -s 1 -d 2 -p tcp -e 40 -c 1 -i 0 -a 1 -x {0.0 3.0 0 ------- null}
h -t 0.010032 -s 1 -d 2 -p tcp -e 40 -c 1 -i 0 -a 1 -x {0.0 3.0 -1 ------- null}
r -t 0.0202453333333333 -s 1 -d 2 -p tcp -e 40 -c 1 -i 0 -a 1 -x {0.0 3.0 0 ------- null}
+ -t 0.0202453333333333 -s 2 -d 3 -p tcp -e 40 -c 1 -i 0 -a 1 -x {0.0 3.0 0 ------- null}
- -t 0.0202453333333333 -s 2 -d 3 -p tcp -e 40 -c 1 -i 0 -a 1 -x {0.0 3.0 0 ------- null}
h -t 0.0202453333333333 -s 2 -d 3 -p tcp -e 40 -c 1 -i 0 -a 1 -x {0.0 3.0 -1 ------- null}
r -t 0.0302773333333333 -s 2 -d 3 -p tcp -e 40 -c 1 -i 0 -a 1 -x {0.0 3.0 0 ------- null}
+ -t 0.0302773333333333 -s 3 -d 2 -p ack -e 40 -c 1 -i 1 -a 1 -x {3.0 0.0 0 ------- null}
- -t 0.0302773333333333 -s 3 -d 2 -p ack -e 40 -c 1 -i 1 -a 1 -x {3.0 0.0 0 ------- null}
h -t 0.0302773333333333 -s 3 -d 2 -p ack -e 40 -c 1 -i 1 -a 1 -x {3.0 0.0 -1 ------- null}
r -t 0.0403093333333333 -s 3 -d 2 -p ack -e 40 -c 1 -i 1 -a 1 -x {3.0 0.0 0 ------- null}
+ -t 0.0403093333333333 -s 2 -d 1 -p ack -e 40 -c 1 -i 1 -a 1 -x {3.0 0.0 0 ------- null}
- -t 0.0403093333333333 -s 2 -d 1 -p ack -e 40 -c 1 -i 1 -a 1 -x {3.0 0.0 0 ------- null}
h -t 0.0403093333333333 -s 2 -d 1 -p ack -e 40 -c 1 -i 1 -a 1 -x {3.0 0.0 -1 ------- null}
r -t 0.0505226666666667 -s 2 -d 1 -p ack -e 40 -c 1 -i 1 -a 1 -x {3.0 0.0 0 ------- null}
+ -t 0.0505226666666667 -s 1 -d 0 -p ack -e 40 -c 1 -i 1 -a 1 -x {3.0 0.0 0 ------- null}
- -t 0.0505226666666667 -s 1 -d 0 -p ack -e 40 -c 1 -i 1 -a 1 -x {3.0 0.0 0 ------- null}
h -t 0.0505226666666667 -s 1 -d 0 -p ack -e 40 -c 1 -i 1 -a 1 -x {3.0 0.0 -1 ------- null}
r -t 0.0605546666666667 -s 1 -d 0 -p ack -e 40 -c 1 -i 1 -a 1 -x {3.0 0.0 0 ------- null}
+ -t 0.0605546666666667 -s 0 -d 1 -p tcp -e 1040 -c 1 -i 2 -a 1 -x {0.0 3.0 1 ------- null}
- -t 0.0605546666666667 -s 0 -d 1 -p tcp -e 1040 -c 1 -i 2 -a 1 -x {0.0 3.0 1 ------- null}
h -t 0.0605546666666667 -s 0 -d 1 -p tcp -e 1040 -c 1 -i 2 -a 1 -x {0.0 3.0 -1 ------- null}
+ -t 0.0605546666666667 -s 0 -d 1 -p tcp -e 1040 -c 1 -i 3 -a 1 -x {0.0 3.0 2 ------- null}
- -t 0.0613866666666667 -s 0 -d 1 -p tcp -e 1040 -c 1 -i 3 -a 1 -x {0.0 3.0 2 ------- null}
h -t 0.0613866666666667 -s 0 -d 1 -p tcp -e 1040 -c 1 -i 3 -a 1 -x {0.0 3.0 -1 ------- null}
r -t 0.0713866666666667 -s 0 -d 1 -p tcp -e 1040 -c 1 -i 2 -a 1 -x {0.0 3.0 1 ------- null}
+ -t 0.0713866666666667 -s 1 -d 2 -p tcp -e 1040 -c 1 -i 2 -a 1 -x {0.0 3.0 1 ------- null}
- -t 0.0713866666666667 -s 1 -d 2 -p tcp -e 1040 -c 1 -i 2 -a 1 -x {0.0 3.0 1 ------- null}
h -t 0.0713866666666667 -s 1 -d 2 -p tcp -e 1040 -c 1 -i 2 -a 1 -x {0.0 3.0 -1 ------- null}
r -t 0.0722186666666667 -s 0 -d 1 -p tcp -e 1040 -c 1 -i 3 -a 1 -x {0.0 3.0 2 ------- null}
+ -t 0.0722186666666667 -s 1 -d 2 -p tcp -e 1040 -c 1 -i 3 -a 1 -x {0.0 3.0 2 ------- null}
- -t 0.0769333333333333 -s 1 -d 2 -p tcp -e 1040 -c 1 -i 3 -a 1 -x {0.0 3.0 2 ------- null}
h -t 0.0769333333333333 -s 1 -d 2 -p tcp -e 1040 -c 1 -i 3 -a 1 -x {0.0 3.0 -1 ------- null}
r -t 0.0869333333333333 -s 1 -d 2 -p tcp -e 1040 -c 1 -i 2 -a 1 -x {0.0 3.0 1 ------- null}
+ -t 0.0869333333333333 -s 2 -d 3 -p tcp -e 1040 -c 1 -i 2 -a 1 -x {0.0 3.0 1 ------- null}
- -t 0.0869333333333333 -s 2 -d 3 -p tcp -e 1040 -c 1 -i 2 -a 1 -x {0.0 3.0 1 ------- null}
h -t 0.0869333333333333 -s 2 -d 3 -p tcp -e 1040 -c 1 -i 2 -a 1 -x {0.0 3.0 -1 ------- null}
r -t 0.09248 -s 1 -d 2 -p tcp -e 1040 -c 1 -i 3 -a 1 -x {0.0 3.0 2 ------- null}
+ -t 0.09248 -s 2 -d 3 -p tcp -e 1040 -c 1 -i 3 -a 1 -x {0.0 3.0 2 ------- null}
- -t 0.09248 -s 2 -d 3 -p tcp -e 1040 -c 1 -i 3 -a 1 -x {0.0 3.0 2 ------- null}
h -t 0.09248 -s 2 -d 3 -p tcp -e 1040 -c 1 -i 3 -a 1 -x {0.0 3.0 -1 ------- null}
r -t 0.0977653333333333 -s 2 -d 3 -p tcp -e 1040 -c 1 -i 2 -a 1 -x {0.0 3.0 1 ------- null}
+ -t 0.0977653333333333 -s 3 -d 2 -p ack -e 40 -c 1 -i 4 -a 1 -x {3.0 0.0 1 ------- null}
- -t 0.0977653333333333 -s 3 -d 2 -p ack -e 40 -c 1 -i 4 -a 1 -x {3.0 0.0 1 ------- null}
h -t 0.0977653333333333 -s 3 -d 2 -p ack -e 40 -c 1 -i 4 -a 1 -x {3.0 0.0 -1 ------- null}
r -t 0.103312 -s 2 -d 3 -p tcp -e 1040 -c 1 -i 3 -a 1 -x {0.0 3.0 2 ------- null}
+ -t 0.103312 -s 3 -d 2 -p ack -e 40 -c 1 -i 5 -a 1 -x {3.0 0.0 2 ------- null}
- -t 0.103312 -s 3 -d 2 -p ack -e 40 -c 1 -i 5 -a 1 -x {3.0 0.0 2 ------- null}
h -t 0.103312 -s 3 -d 2 -p ack -e 40 -c 1 -i 5 -a 1 -x {3.0 0.0 -1 ------- null}
r -t 0.107797333333333 -s 3 -d 2 -p ack -e 40 -c 1 -i 4 -a 1 -x {3.0 0.0 1 ------- null}
+ -t 0.107797333333333 -s 2 -d 1 -p ack -e 40 -c 1 -i 4 -a 1 -x {3.0 0.0 1 ------- null}
- -t 0.107797333333333 -s 2 -d 1 -p ack -e 40 -c 1 -i 4 -a 1 -x {3.0 0.0 1 ------- null}
h -t 0.107797333333333 -s 2 -d 1 -p ack -e 40 -c 1 -i 4 -a 1 -x {3.0 0.0 -1 ------- null}
r -t 0.113344 -s 3 -d 2 -p ack -e 40 -c 1 -i 5 -a 1 -x {3.0 0.0 2 ------- null}
+ -t 0.113344 -s 2 -d 1 -p ack -e 40 -c 1 -i 5 -a 1 -x {3.0 0.0 2 ------- null}
- -t 0.113344 -s 2 -d 1 -p ack -e 40 -c 1 -i 5 -a 1 -x {3.0 0.0 2 ------- null}
h -t 0.113344 -s 2 -d 1 -p ack -e 40 -c 1 -i 5 -a 1 -x {3.0 0.0 -1 ------- null}
r -t 0.118010666666667 -s 2 -d 1 -p ack -e 40 -c 1 -i 4 -a 1 -x {3.0 0.0 1 ------- null}
+ -t 0.118010666666667 -s 1 -d 0 -p ack -e 40 -c 1 -i 4 -a 1 -x {3.0 0.0 1 ------- null}
- -t 0.118010666666667 -s 1 -d 0 -p ack -e 40 -c 1 -i 4 -a 1 -x {3.0 0.0 1 ------- null}
h -t 0.118010666666667 -s 1 -d 0 -p ack -e 40 -c 1 -i 4 -a 1 -x {3.0 0.0 -1 ------- null}
r -t 0.123557333333333 -s 2 -d 1 -p ack -e 40 -c 1 -i 5 -a 1 -x {3.0 0.0 2 ------- null}
+ -t 0.123557333333333 -s 1 -d 0 -p ack -e 40 -c 1 -i 5 -a 1 -x {3.0 0.0 2 ------- null}
- -t 0.123557333333333 -s 1 -d 0 -p ack -e 40 -c 1 -i 5 -a 1 -x {3.0 0.0 2 ------- null}
h -t 0.123557333333333 -s 1 -d 0 -p ack -e 40 -c 1 -i 5 -a 1 -x {3.0 0.0 -1 ------- null}
r -t 0.128042666666667 -s 1 -d 0 -p ack -e 40 -c 1 -i 4 -a 1 -x {3.0 0.0 1 ------- null}
+ -t 0.128042666666667 -s 0 -d 1 -p tcp -e 1040 -c 1 -i 6 -a 1 -x {0.0 3.0 3 ------- null}
- -t 0.128042666666667 -s 0 -d 1 -p tcp -e 1040 -c 1 -i 6 -a 1 -x {0.0 3.0 3 ------- null}
h -t 0.128042666666667 -s 0 -d 1 -p tcp -e 1040 -c 1 -i 6 -a 1 -x {0.0 3.0 -1 ------- null}
+ -t 0.128042666666667 -s 0 -d 1 -p tcp -e 1040 -c 1 -i 7 -a 1 -x {0.0 3.0 4 ------- null}
- -t 0.128874666666667 -s 0 -d 1 -p tcp -e 1040 -c 1 -i 7 -a 1 -x {0.0 3.0 4 ------- null}
h -t 0.128874666666667 -s 0 -d 1 -p tcp -e 1040 -c 1 -i 7 -a 1 -x {0.0 3.0 -1 ------- null}
r -t 0.133589333333333 -s 1 -d 0 -p ack -e 40 -c 1 -i 5 -a 1 -x {3.0 0.0 2 ------- null}
+ -t 0.133589333333333 -s 0 -d 1 -p tcp -e 1040 -c 1 -i 8 -a 1 -x {0.0 3.0 5 ------- null}
- -t 0.133589333333333 -s 0 -d 1 -p tcp -e 1040 -c 1 -i 8 -a 1 -x {0.0 3.0 5 ------- null}
h -t 0.133589333333333 -s 0 -d 1 -p tcp -e 1040 -c 1 -i 8 -a 1 -x {0.0 3.0 -1 ------- null}
+ -t 0.133589333333333 -s 0 -d 1 -p tcp -e 1040 -c 1 -i 9 -a 1 -x {0.0 3.0 6 ------- null}
- -t 0.134421333333333 -s 0 -d 1 -p tcp -e 1040 -c 1 -i 9 -a 1 -x {0.0 3.0 6 ------- null}
h -t 0.134421333333333 -s 0 -d 1 -p tcp -e 1040 -c 1 -i 9 -a 1 -x {0.0 3.0 -1 ------- null}
r -t 0.138874666666667 -s 0 -d 1 -p tcp -e 1040 -c 1 -i 6 -a 1 -x {0.0 3.0 3 ------- null}
+ -t 0.138874666666667 -s 1 -d 2 -p tcp -e 1040 -c 1 -i 6 -a 1 -x {0.0 3.0 3 ------- null}
- -t 0.138874666666667 -s 1 -d 2 -p tcp -e 1040 -c 1 -i 6 -a 1 -x {0.0 3.0 3 ------- null}
h -t 0.138874666666667 -s 1 -d 2 -p tcp -e 1040 -c 1 -i 6 -a 1 -x {0.0 3.0 -1 ------- null}
r -t 0.139706666666667 -s 0 -d 1 -p tcp -e 1040 -c 1 -i 7 -a 1 -x {0.0 3.0 4 ------- null}
+ -t 0.139706666666667 -s 1 -d 2 -p tcp -e 1040 -c 1 -i 7 -a 1 -x {0.0 3.0 4 ------- null}
r -t 0.144421333333333 -s 0 -d 1 -p tcp -e 1040 -c 1 -i 8 -a 1 -x {0.0 3.0 5 ------- null}
+ -t 0.144421333333333 -s 1 -d 2 -p tcp -e 1040 -c 1 -i 8 -a 1 -x {0.0 3.0 5 ------- null}
- -t 0.144421333333333 -s 1 -d 2 -p tcp -e 1040 -c 1 -i 7 -a 1 -x {0.0 3.0 4 ------- null}
h -t 0.144421333333333 -s 1 -d 2 -p tcp -e 1040 -c 1 -i 7 -a 1 -x {0.0 3.0 -1 ------- null}
r -t 0.145253333333333 -s 0 -d 1 -p tcp -e 1040 -c 1 -i 9 -a 1 -x {0.0 3.0 6 ------- null}
+ -t 0.145253333333333 -s 1 -d 2 -p tcp -e 1040 -c 1 -i 9 -a 1 -x {0.0 3.0 6 ------- null}
- -t 0.149968 -s 1 -d 2 -p tcp -e 1040 -c 1 -i 8 -a 1 -x {0.0 3.0 5 ------- null}
h -t 0.149968 -s 1 -d 2 -p tcp -e 1040 -c 1 -i 8 -a 1 -x {0.0 3.0 -1 ------- null}
r -t 0.154421333333333 -s 1 -d 2 -p tcp -e 1040 -c 1 -i 6 -a 1 -x {0.0 3.0 3 ------- null}
+ -t 0.154421333333333 -s 2 -d 3 -p tcp -e 1040 -c 1 -i 6 -a 1 -x {0.0 3.0 3 ------- null}
- -t 0.154421333333333 -s 2 -d 3 -p tcp -e 1040 -c 1 -i 6 -a 1 -x {0.0 3.0 3 ------- null}
h -t 0.154421333333333 -s 2 -d 3 -p tcp -e 1040 -c 1 -i 6 -a 1 -x {0.0 3.0 -1 ------- null}
- -t 0.155514666666667 -s 1 -d 2 -p tcp -e 1040 -c 1 -i 9 -a 1 -x {0.0 3.0 6 ------- null}
h -t 0.155514666666667 -s 1 -d 2 -p tcp -e 1040 -c 1 -i 9 -a 1 -x {0.0 3.0 -1 ------- null}
r -t 0.159968 -s 1 -d 2 -p tcp -e 1040 -c 1 -i 7 -a 1 -x {0.0 3.0 4 ------- null}
+ -t 0.159968 -s 2 -d 3 -p tcp -e 1040 -c 1 -i 7 -a 1 -x {0.0 3.0 4 ------- null}
- -t 0.159968 -s 2 -d 3 -p tcp -e 1040 -c 1 -i 7 -a 1 -x {0.0 3.0 4 ------- null}
h -t 0.159968 -s 2 -d 3 -p tcp -e 1040 -c 1 -i 7 -a 1 -x {0.0 3.0 -1 ------- null}
r -t 0.165253333333333 -s 2 -d 3 -p tcp -e 1040 -c 1 -i 6 -a 1 -x {0.0 3.0 3 ------- null}
+ -t 0.165253333333333 -s 3 -d 2 -p ack -e 40 -c 1 -i 10 -a 1 -x {3.0 0.0 3 ------- null}
- -t 0.165253333333333 -s 3 -d 2 -p ack -e 40 -c 1 -i 10 -a 1 -x {3.0 0.0 3 ------- null}
h -t 0.165253333333333 -s 3 -d 2 -p ack -e 40 -c 1 -i 10 -a 1 -x {3.0 0.0 -1 ------- null}
r -t 0.165514666666667 -s 1 -d 2 -p tcp -e 1040 -c 1 -i 8 -a 1 -x {0.0 3.0 5 ------- null}
+ -t 0.165514666666667 -s 2 -d 3 -p tcp -e 1040 -c 1 -i 8 -a 1 -x {0.0 3.0 5 ------- null}
- -t 0.165514666666667 -s 2 -d 3 -p tcp -e 1040 -c 1 -i 8 -a 1 -x {0.0 3.0 5 ------- null}
h -t 0.165514666666667 -s 2 -d 3 -p tcp -e 1040 -c 1 -i 8 -a 1 -x {0.0 3.0 -1 ------- null}
r -t 0.1708 -s 2 -d 3 -p tcp -e 1040 -c 1 -i 7 -a 1 -x {0.0 3.0 4 ------- null}
+ -t 0.1708 -s 3 -d 2 -p ack -e 40 -c 1 -i 11 -a 1 -x {3.0 0.0 4 ------- null}
- -t 0.1708 -s 3 -d 2 -p ack -e 40 -c 1 -i 11 -a 1 -x {3.0 0.0 4 ------- null}
h -t 0.1708 -s 3 -d 2 -p ack -e 40 -c 1 -i 11 -a 1 -x {3.0 0.0 -1 ------- null}
r -t 0.171061333333333 -s 1 -d 2 -p tcp -e 1040 -c 1 -i 9 -a 1 -x {0.0 3.0 6 ------- null}
+ -t 0.171061333333333 -s 2 -d 3 -p tcp -e 1040 -c 1 -i 9 -a 1 -x {0.0 3.0 6 ------- null}
- -t 0.171061333333333 -s 2 -d 3 -p tcp -e 1040 -c 1 -i 9 -a 1 -x {0.0 3.0 6 ------- null}
h -t 0.171061333333333 -s 2 -d 3 -p tcp -e 1040 -c 1 -i 9 -a 1 -x {0.0 3.0 -1 ------- null}
r -t 0.175285333333333 -s 3 -d 2 -p ack -e 40 -c 1 -i 10 -a 1 -x {3.0 0.0 3 ------- null}
+ -t 0.175285333333333 -s 2 -d 1 -p ack -e 40 -c 1 -i 10 -a 1 -x {3.0 0.0 3 ------- null}
- -t 0.175285333333333 -s 2 -d 1 -p ack -e 40 -c 1 -i 10 -a 1 -x {3.0 0.0 3 ------- null}
h -t 0.175285333333333 -s 2 -d 1 -p ack -e 40 -c 1 -i 10 -a 1 -x {3.0 0.0 -1 ------- null}
r -t 0.176346666666667 -s 2 -d 3 -p tcp -e 1040 -c 1 -i 8 -a 1 -x {0.0 3.0 5 ------- null}
+ -t 0.176346666666667 -s 3 -d 2 -p ack -e 40 -c 1 -i 12 -a 1 -x {3.0 0.0 5 ------- null}
- -t 0.176346666666667 -s 3 -d 2 -p ack -e 40 -c 1 -i 12 -a 1 -x {3.0 0.0 5 ------- null}
h -t 0.176346666666667 -s 3 -d 2 -p ack -e 40 -c 1 -i 12 -a 1 -x {3.0 0.0 -1 ------- null}
r -t 0.180832 -s 3 -d 2 -p ack -e 40 -c 1 -i 11 -a 1 -x {3.0 0.0 4 ------- null}
+ -t 0.180832 -s 2 -d 1 -p ack -e 40 -c 1 -i 11 -a 1 -x {3.0 0.0 4 ------- null}
- -t 0.180832 -s 2 -d 1 -p ack -e 40 -c 1 -i 11 -a 1 -x {3.0 0.0 4 ------- null}
h -t 0.180832 -s 2 -d 1 -p ack -e 40 -c 1 -i 11 -a 1 -x {3.0 0.0 -1 ------- null}
r -t 0.181893333333333 -s 2 -d 3 -p tcp -e 1040 -c 1 -i 9 -a 1 -x {0.0 3.0 6 ------- null}
+ -t 0.181893333333333 -s 3 -d 2 -p ack -e 40 -c 1 -i 13 -a 1 -x {3.0 0.0 6 ------- null}
- -t 0.181893333333333 -s 3 -d 2 -p ack -e 40 -c 1 -i 13 -a 1 -x {3.0 0.0 6 ------- null}
h -t 0.181893333333333 -s 3 -d 2 -p ack -e 40 -c 1 -i 13 -a 1 -x {3.0 0.0 -1 ------- null}
r -t 0.185498666666667 -s 2 -d 1 -p ack -e 40 -c 1 -i 10 -a 1 -x {3.0 0.0 3 ------- null}
+ -t 0.185498666666667 -s 1 -d 0 -p ack -e 40 -c 1 -i 10 -a 1 -x {3.0 0.0 3 ------- null}
- -t 0.185498666666667 -s 1 -d 0 -p ack -e 40 -c 1 -i 10 -a 1 -x {3.0 0.0 3 ------- null}
h -t 0.185498666666667 -s 1 -d 0 -p ack -e 40 -c 1 -i 10 -a 1 -x {3.0 0.0 -1 ------- null}
r -t 0.186378666666667 -s 3 -d 2 -p ack -e 40 -c 1 -i 12 -a 1 -x {3.0 0.0 5 ------- null}
+ -t 0.186378666666667 -s 2 -d 1 -p ack -e 40 -c 1 -i 12 -a 1 -x {3.0 0.0 5 ------- null}
- -t 0.186378666666667 -s 2 -d 1 -p ack -e 40 -c 1 -i 12 -a 1 -x {3.0 0.0 5 ------- null}
h -t 0.186378666666667 -s 2 -d 1 -p ack -e 40 -c 1 -i 12 -a 1 -x {3.0 0.0 -1 ------- null}
r -t 0.191045333333333 -s 2 -d 1 -p ack -e 40 -c 1 -i 11 -a 1 -x {3.0 0.0 4 ------- null}
+ -t 0.191045333333333 -s 1 -d 0 -p ack -e 40 -c 1 -i 11 -a 1 -x {3.0 0.0 4 ------- null}
- -t 0.191045333333333 -s 1 -d 0 -p ack -e 40 -c 1 -i 11 -a 1 -x {3.0 0.0 4 ------- null}
h -t 0.191045333333333 -s 1 -d 0 -p ack -e 40 -c 1 -i 11 -a 1 -x {3.0 0.0 -1 ------- null}
r -t 0.191925333333333 -s 3 -d 2 -p ack -e 40 -c 1 -i 13 -a 1 -x {3.0 0.0 6 ------- null}
+ -t 0.191925333333333 -s 2 -d 1 -p ack -e 40 -c 1 -i 13 -a 1 -x {3.0 0.0 6 ------- null}
- -t 0.191925333333333 -s 2 -d 1 -p ack -e 40 -c 1 -i 13 -a 1 -x {3.0 0.0 6 ------- null}
h -t 0.191925333333333 -s 2 -d 1 -p ack -e 40 -c 1 -i 13 -a 1 -x {3.0 0.0 -1 ------- null}
r -t 0.195530666666667 -s 1 -d 0 -p ack -e 40 -c 1 -i 10 -a 1 -x {3.0 0.0 3 ------- null}
+ -t 0.195530666666667 -s 0 -d 1 -p tcp -e 1040 -c 1 -i 14 -a 1 -x {0.0 3.0 7 ------- null}
- -t 0.195530666666667 -s 0 -d 1 -p tcp -e 1040 -c 1 -i 14 -a 1 -x {0.0 3.0 7 ------- null}
h -t 0.195530666666667 -s 0 -d 1 -p tcp -e 1040 -c 1 -i 14 -a 1 -x {0.0 3.0 -1 ------- null}
+ -t 0.195530666666667 -s 0 -d 1 -p tcp -e 1040 -c 1 -i 15 -a 1 -x {0.0 3.0 8 ------- null}
- -t 0.196362666666667 -s 0 -d 1 -p tcp -e 1040 -c 1 -i 15 -a 1 -x {0.0 3.0 8 ------- null}
h -t 0.196362666666667 -s 0 -d 1 -p tcp -e 1040 -c 1 -i 15 -a 1 -x {0.0 3.0 -1 ------- null}
r -t 0.196592 -s 2 -d 1 -p ack -e 40 -c 1 -i 12 -a 1 -x {3.0 0.0 5 ------- null}
+ -t 0.196592 -s 1 -d 0 -p ack -e 40 -c 1 -i 12 -a 1 -x {3.0 0.0 5 ------- null}
- -t 0.196592 -s 1 -d 0 -p ack -e 40 -c 1 -i 12 -a 1 -x {3.0 0.0 5 ------- null}
h -t 0.196592 -s 1 -d 0 -p ack -e 40 -c 1 -i 12 -a 1 -x {3.0 0.0 -1 ------- null}
r -t 0.201077333333333 -s 1 -d 0 -p ack -e 40 -c 1 -i 11 -a 1 -x {3.0 0.0 4 ------- null}
+ -t 0.201077333333333 -s 0 -d 1 -p tcp -e 1040 -c 1 -i 16 -a 1 -x {0.0 3.0 9 ------- null}
- -t 0.201077333333333 -s 0 -d 1 -p tcp -e 1040 -c 1 -i 16 -a 1 -x {0.0 3.0 9 ------- null}
h -t 0.201077333333333 -s 0 -d 1 -p tcp -e 1040 -c 1 -i 16 -a 1 -x {0.0 3.0 -1 ------- null}
+ -t 0.201077333333333 -s 0 -d 1 -p tcp -e 1040 -c 1 -i 17 -a 1 -x {0.0 3.0 10 ------- null}
- -t 0.201909333333333 -s 0 -d 1 -p tcp -e 1040 -c 1 -i 17 -a 1 -x {0.0 3.0 10 ------- null}
h -t 0.201909333333333 -s 0 -d 1 -p tcp -e 1040 -c 1 -i 17 -a 1 -x {0.0 3.0 -1 ------- null}
r -t 0.202138666666667 -s 2 -d 1 -p ack -e 40 -c 1 -i 13 -a 1 -x {3.0 0.0 6 ------- null}
+ -t 0.202138666666667 -s 1 -d 0 -p ack -e 40 -c 1 -i 13 -a 1 -x {3.0 0.0 6 ------- null}
- -t 0.202138666666667 -s 1 -d 0 -p ack -e 40 -c 1 -i 13 -a 1 -x {3.0 0.0 6 ------- null}
h -t 0.202138666666667 -s 1 -d 0 -p ack -e 40 -c 1 -i 13 -a 1 -x {3.0 0.0 -1 ------- null}
r -t 0.206362666666667 -s 0 -d 1 -p tcp -e 1040 -c 1 -i 14 -a 1 -x {0.0 3.0 7 ------- null}
+ -t 0.206362666666667 -s 1 -d 2 -p tcp -e 1040 -c 1 -i 14 -a 1 -x {0.0 3.0 7 ------- null}
- -t 0.206362666666667 -s 1 -d 2 -p tcp -e 1040 -c 1 -i 14 -a 1 -x {0.0 3.0 7 ------- null}
h -t 0.206362666666667 -s 1 -d 2 -p tcp -e 1040 -c 1 -i 14 -a 1 -x {0.0 3.0 -1 ------- null}
r -t 0.206624 -s 1 -d 0 -p ack -e 40 -c 1 -i 12 -a 1 -x {3.0 0.0 5 ------- null}
+ -t 0.206624 -s 0 -d 1 -p tcp -e 1040 -c 1 -i 18 -a 1 -x {0.0 3.0 11 ------- null}
- -t 0.206624 -s 0 -d 1 -p tcp -e 1040 -c 1 -i 18 -a 1 -x {0.0 3.0 11 ------- null}
h -t 0.206624 -s 0 -d 1 -p tcp -e 1040 -c 1 -i 18 -a 1 -x {0.0 3.0 -1 ------- null}
+ -t 0.206624 -s 0 -d 1 -p tcp -e 1040 -c 1 -i 19 -a 1 -x {0.0 3.0 12 ------- null}
r -t 0.207194666666667 -s 0 -d 1 -p tcp -e 1040 -c 1 -i 15 -a 1 -x {0.0 3.0 8 ------- null}
+ -t 0.207194666666667 -s 1 -d 2 -p tcp -e 1040 -c 1 -i 15 -a 1 -x {0.0 3.0 8 ------- null}
- -t 0.207456 -s 0 -d 1 -p tcp -e 1040 -c 1 -i 19 -a 1 -x {0.0 3.0 12 ------- null}
h -t 0.207456 -s 0 -d 1 -p tcp -e 1040 -c 1 -i 19 -a 1 -x {0.0 3.0 -1 ------- null}
r -t 0.211909333333333 -s 0 -d 1 -p tcp -e 1040 -c 1 -i 16 -a 1 -x {0.0 3.0 9 ------- null}
+ -t 0.211909333333333 -s 1 -d 2 -p tcp -e 1040 -c 1 -i 16 -a 1 -x {0.0 3.0 9 ------- null}
- -t 0.211909333333333 -s 1 -d 2 -p tcp -e 1040 -c 1 -i 15 -a 1 -x {0.0 3.0 8 ------- null}
h -t 0.211909333333333 -s 1 -d 2 -p tcp -e 1040 -c 1 -i 15 -a 1 -x {0.0 3.0 -1 ------- null}
r -t 0.212170666666667 -s 1 -d 0 -p ack -e 40 -c 1 -i 13 -a 1 -x {3.0 0.0 6 ------- null}
+ -t 0.212170666666667 -s 0 -d 1 -p tcp -e 1040 -c 1 -i 20 -a 1 -x {0.0 3.0 13 ------- null}
- -t 0.212170666666667 -s 0 -d 1 -p tcp -e 1040 -c 1 -i 20 -a 1 -x {0.0 3.0 13 ------- null}
h -t 0.212170666666667 -s 0 -d 1 -p tcp -e 1040 -c 1 -i 20 -a 1 -x {0.0 3.0 -1 ------- null}
+ -t 0.212170666666667 -s 0 -d 1 -p tcp -e 1040 -c 1 -i 21 -a 1 -x {0.0 3.0 14 ------- null}
r -t 0.212741333333333 -s 0 -d 1 -p tcp -e 1040 -c 1 -i 17 -a 1 -x {0.0 3.0 10 ------- null}
+ -t 0.212741333333333 -s 1 -d 2 -p tcp -e 1040 -c 1 -i 17 -a 1 -x {0.0 3.0 10 ------- null}
- -t 0.213002666666667 -s 0 -d 1 -p tcp -e 1040 -c 1 -i 21 -a 1 -x {0.0 3.0 14 ------- null}
h -t 0.213002666666667 -s 0 -d 1 -p tcp -e 1040 -c 1 -i 21 -a 1 -x {0.0 3.0 -1 ------- null}
r -t 0.217456 -s 0 -d 1 -p tcp -e 1040 -c 1 -i 18 -a 1 -x {0.0 3.0 11 ------- null}
+ -t 0.217456 -s 1 -d 2 -p tcp -e 1040 -c 1 -i 18 -a 1 -x {0.0 3.0 11 ------- null}
- -t 0.217456 -s 1 -d 2 -p tcp -e 1040 -c 1 -i 16 -a 1 -x {0.0 3.0 9 ------- null}
h -t 0.217456 -s 1 -d 2 -p tcp -e 1040 -c 1 -i 16 -a 1 -x {0.0 3.0 -1 ------- null}
r -t 0.218288 -s 0 -d 1 -p tcp -e 1040 -c 1 -i 19 -a 1 -x {0.0 3.0 12 ------- null}
+ -t 0.218288 -s 1 -d 2 -p tcp -e 1040 -c 1 -i 19 -a 1 -x {0.0 3.0 12 ------- null}
r -t 0.221909333333333 -s 1 -d 2 -p tcp -e 1040 -c 1 -i 14 -a 1 -x {0.0 3.0 7 ------- null}
+ -t 0.221909333333333 -s 2 -d 3 -p tcp -e 1040 -c 1 -i 14 -a 1 -x {0.0 3.0 7 ------- null}
- -t 0.221909333333333 -s 2 -d 3 -p tcp -e 1040 -c 1 -i 14 -a 1 -x {0.0 3.0 7 ------- null}
h -t 0.221909333333333 -s 2 -d 3 -p tcp -e 1040 -c 1 -i 14 -a 1 -x {0.0 3.0 -1 ------- null}
r -t 0.223002666666667 -s 0 -d 1 -p tcp -e 1040 -c 1 -i 20 -a 1 -x {0.0 3.0 13 ------- null}
+ -t 0.223002666666667 -s 1 -d 2 -p tcp -e 1040 -c 1 -i 20 -a 1 -x {0.0 3.0 13 ------- null}
- -t 0.223002666666667 -s 1 -d 2 -p tcp -e 1040 -c 1 -i 17 -a 1 -x {0.0 3.0 10 ------- null}
h -t 0.223002666666667 -s 1 -d 2 -p tcp -e 1040 -c 1 -i 17 -a 1 -x {0.0 3.0 -1 ------- null}
r -t 0.223834666666667 -s 0 -d 1 -p tcp -e 1040 -c 1 -i 21 -a 1 -x {0.0 3.0 14 ------- null}
+ -t 0.223834666666667 -s 1 -d 2 -p tcp -e 1040 -c 1 -i 21 -a 1 -x {0.0 3.0 14 ------- null}
r -t 0.227456 -s 1 -d 2 -p tcp -e 1040 -c 1 -i 15 -a 1 -x {0.0 3.0 8 ------- null}
+ -t 0.227456 -s 2 -d 3 -p tcp -e 1040 -c 1 -i 15 -a 1 -x {0.0 3.0 8 ------- null}
- -t 0.227456 -s 2 -d 3 -p tcp -e 1040 -c 1 -i 15 -a 1 -x {0.0 3.0 8 ------- null}
h -t 0.227456 -s 2 -d 3 -p tcp -e 1040 -c 1 -i 15 -a 1 -x {0.0 3.0 -1 ------- null}
- -t 0.228549333333333 -s 1 -d 2 -p tcp -e 1040 -c 1 -i 18 -a 1 -x {0.0 3.0 11 ------- null}
h -t 0.228549333333333 -s 1 -d 2 -p tcp -e 1040 -c 1 -i 18 -a 1 -x {0.0 3.0 -1 ------- null}
r -t 0.232741333333333 -s 2 -d 3 -p tcp -e 1040 -c 1 -i 14 -a 1 -x {0.0 3.0 7 ------- null}
+ -t 0.232741333333333 -s 3 -d 2 -p ack -e 40 -c 1 -i 22 -a 1 -x {3.0 0.0 7 ------- null}
- -t 0.232741333333333 -s 3 -d 2 -p ack -e 40 -c 1 -i 22 -a 1 -x {3.0 0.0 7 ------- null}
h -t 0.232741333333333 -s 3 -d 2 -p ack -e 40 -c 1 -i 22 -a 1 -x {3.0 0.0 -1 ------- null}
r -t 0.233002666666667 -s 1 -d 2 -p tcp -e 1040 -c 1 -i 16 -a 1 -x {0.0 3.0 9 ------- null}
+ -t 0.233002666666667 -s 2 -d 3 -p tcp -e 1040 -c 1 -i 16 -a 1 -x {0.0 3.0 9 ------- null}
- -t 0.233002666666667 -s 2 -d 3 -p tcp -e 1040 -c 1 -i 16 -a 1 -x {0.0 3.0 9 ------- null}
h -t 0.233002666666667 -s 2 -d 3 -p tcp -e 1040 -c 1 -i 16 -a 1 -x {0.0 3.0 -1 ------- null}
- -t 0.234096 -s 1 -d 2 -p tcp -e 1040 -c 1 -i 19 -a 1 -x {0.0 3.0 12 ------- null}
h -t 0.234096 -s 1 -d 2 -p tcp -e 1040 -c 1 -i 19 -a 1 -x {0.0 3.0 -1 ------- null}
r -t 0.238288 -s 2 -d 3 -p tcp -e 1040 -c 1 -i 15 -a 1 -x {0.0 3.0 8 ------- null}
+ -t 0.238288 -s 3 -d 2 -p ack -e 40 -c 1 -i 23 -a 1 -x {3.0 0.0 8 ------- null}
- -t 0.238288 -s 3 -d 2 -p ack -e 40 -c 1 -i 23 -a 1 -x {3.0 0.0 8 ------- null}
h -t 0.238288 -s 3 -d 2 -p ack -e 40 -c 1 -i 23 -a 1 -x {3.0 0.0 -1 ------- null}
r -t 0.238549333333333 -s 1 -d 2 -p tcp -e 1040 -c 1 -i 17 -a 1 -x {0.0 3.0 10 ------- null}
+ -t 0.238549333333333 -s 2 -d 3 -p tcp -e 1040 -c 1 -i 17 -a 1 -x {0.0 3.0 10 ------- null}
- -t 0.238549333333333 -s 2 -d 3 -p tcp -e 1040 -c 1 -i 17 -a 1 -x {0.0 3.0 10 ------- null}
h -t 0.238549333333333 -s 2 -d 3 -p tcp -e 1040 -c 1 -i 17 -a 1 -x {0.0 3.0 -1 ------- null}
- -t 0.239642666666667 -s 1 -d 2 -p tcp -e 1040 -c 1 -i 20 -a 1 -x {0.0 3.0 13 ------- null}
h -t 0.239642666666667 -s 1 -d 2 -p tcp -e 1040 -c 1 -i 20 -a 1 -x {0.0 3.0 -1 ------- null}
r -t 0.242773333333333 -s 3 -d 2 -p ack -e 40 -c 1 -i 22 -a 1 -x {3.0 0.0 7 ------- null}
+ -t 0.242773333333333 -s 2 -d 1 -p ack -e 40 -c 1 -i 22 -a 1 -x {3.0 0.0 7 ------- null}
- -t 0.242773333333333 -s 2 -d 1 -p ack -e 40 -c 1 -i 22 -a 1 -x {3.0 0.0 7 ------- null}
h -t 0.242773333333333 -s 2 -d 1 -p ack -e 40 -c 1 -i 22 -a 1 -x {3.0 0.0 -1 ------- null}
r -t 0.243834666666667 -s 2 -d 3 -p tcp -e 1040 -c 1 -i 16 -a 1 -x {0.0 3.0 9 ------- null}
+ -t 0.243834666666667 -s 3 -d 2 -p ack -e 40 -c 1 -i 24 -a 1 -x {3.0 0.0 9 ------- null}
- -t 0.243834666666667 -s 3 -d 2 -p ack -e 40 -c 1 -i 24 -a 1 -x {3.0 0.0 9 ------- null}
h -t 0.243834666666667 -s 3 -d 2 -p ack -e 40 -c 1 -i 24 -a 1 -x {3.0 0.0 -1 ------- null}
r -t 0.244096 -s 1 -d 2 -p tcp -e 1040 -c 1 -i 18 -a 1 -x {0.0 3.0 11 ------- null}
+ -t 0.244096 -s 2 -d 3 -p tcp -e 1040 -c 1 -i 18 -a 1 -x {0.0 3.0 11 ------- null}
- -t 0.244096 -s 2 -d 3 -p tcp -e 1040 -c 1 -i 18 -a 1 -x {0.0 3.0 11 ------- null}
h -t 0.244096 -s 2 -d 3 -p tcp -e 1040 -c 1 -i 18 -a 1 -x {0.0 3.0 -1 ------- null}
- -t 0.245189333333333 -s 1 -d 2 -p tcp -e 1040 -c 1 -i 21 -a 1 -x {0.0 3.0 14 ------- null}
h -t 0.245189333333333 -s 1 -d 2 -p tcp -e 1040 -c 1 -i 21 -a 1 -x {0.0 3.0 -1 ------- null}
r -t 0.24832 -s 3 -d 2 -p ack -e 40 -c 1 -i 23 -a 1 -x {3.0 0.0 8 ------- null}
+ -t 0.24832 -s 2 -d 1 -p ack -e 40 -c 1 -i 23 -a 1 -x {3.0 0.0 8 ------- null}
- -t 0.24832 -s 2 -d 1 -p ack -e 40 -c 1 -i 23 -a 1 -x {3.0 0.0 8 ------- null}
h -t 0.24832 -s 2 -d 1 -p ack -e 40 -c 1 -i 23 -a 1 -x {3.0 0.0 -1 ------- null}
r -t 0.249381333333333 -s 2 -d 3 -p tcp -e 1040 -c 1 -i 17 -a 1 -x {0.0 3.0 10 ------- null}
+ -t 0.249381333333333 -s 3 -d 2 -p ack -e 40 -c 1 -i 25 -a 1 -x {3.0 0.0 10 ------- null}
- -t 0.249381333333333 -s 3 -d 2 -p ack -e 40 -c 1 -i 25 -a 1 -x {3.0 0.0 10 ------- null}
h -t 0.249381333333333 -s 3 -d 2 -p ack -e 40 -c 1 -i 25 -a 1 -x {3.0 0.0 -1 ------- null}
r -t 0.249642666666667 -s 1 -d 2 -p tcp -e 1040 -c 1 -i 19 -a 1 -x {0.0 3.0 12 ------- null}
+ -t 0.249642666666667 -s 2 -d 3 -p tcp -e 1040 -c 1 -i 19 -a 1 -x {0.0 3.0 12 ------- null}
- -t 0.249642666666667 -s 2 -d 3 -p tcp -e 1040 -c 1 -i 19 -a 1 -x {0.0 3.0 12 ------- null}
h -t 0.249642666666667 -s 2 -d 3 -p tcp -e 1040 -c 1 -i 19 -a 1 -x {0.0 3.0 -1 ------- null}
r -t 0.252986666666667 -s 2 -d 1 -p ack -e 40 -c 1 -i 22 -a 1 -x {3.0 0.0 7 ------- null}
+ -t 0.252986666666667 -s 1 -d 0 -p ack -e 40 -c 1 -i 22 -a 1 -x {3.0 0.0 7 ------- null}
- -t 0.252986666666667 -s 1 -d 0 -p ack -e 40 -c 1 -i 22 -a 1 -x {3.0 0.0 7 ------- null}
h -t 0.252986666666667 -s 1 -d 0 -p ack -e 40 -c 1 -i 22 -a 1 -x {3.0 0.0 -1 ------- null}
r -t 0.253866666666667 -s 3 -d 2 -p ack -e 40 -c 1 -i 24 -a 1 -x {3.0 0.0 9 ------- null}
+ -t 0.253866666666667 -s 2 -d 1 -p ack -e 40 -c 1 -i 24 -a 1 -x {3.0 0.0 9 ------- null}
- -t 0.253866666666667 -s 2 -d 1 -p ack -e 40 -c 1 -i 24 -a 1 -x {3.0 0.0 9 ------- null}
h -t 0.253866666666667 -s 2 -d 1 -p ack -e 40 -c 1 -i 24 -a 1 -x {3.0 0.0 -1 ------- null}
r -t 0.254928 -s 2 -d 3 -p tcp -e 1040 -c 1 -i 18 -a 1 -x {0.0 3.0 11 ------- null}
+ -t 0.254928 -s 3 -d 2 -p ack -e 40 -c 1 -i 26 -a 1 -x {3.0 0.0 11 ------- null}
- -t 0.254928 -s 3 -d 2 -p ack -e 40 -c 1 -i 26 -a 1 -x {3.0 0.0 11 ------- null}
h -t 0.254928 -s 3 -d 2 -p ack -e 40 -c 1 -i 26 -a 1 -x {3.0 0.0 -1 ------- null}
r -t 0.255189333333333 -s 1 -d 2 -p tcp -e 1040 -c 1 -i 20 -a 1 -x {0.0 3.0 13 ------- null}
+ -t 0.255189333333333 -s 2 -d 3 -p tcp -e 1040 -c 1 -i 20 -a 1 -x {0.0 3.0 13 ------- null}
- -t 0.255189333333333 -s 2 -d 3 -p tcp -e 1040 -c 1 -i 20 -a 1 -x {0.0 3.0 13 ------- null}
h -t 0.255189333333333 -s 2 -d 3 -p tcp -e 1040 -c 1 -i 20 -a 1 -x {0.0 3.0 -1 ------- null}
r -t 0.258533333333333 -s 2 -d 1 -p ack -e 40 -c 1 -i 23 -a 1 -x {3.0 0.0 8 ------- null}
+ -t 0.258533333333333 -s 1 -d 0 -p ack -e 40 -c 1 -i 23 -a 1 -x {3.0 0.0 8 ------- null}
- -t 0.258533333333333 -s 1 -d 0 -p ack -e 40 -c 1 -i 23 -a 1 -x {3.0 0.0 8 ------- null}
h -t 0.258533333333333 -s 1 -d 0 -p ack -e 40 -c 1 -i 23 -a 1 -x {3.0 0.0 -1 ------- null}
r -t 0.259413333333333 -s 3 -d 2 -p ack -e 40 -c 1 -i 25 -a 1 -x {3.0 0.0 10 ------- null}
+ -t 0.259413333333333 -s 2 -d 1 -p ack -e 40 -c 1 -i 25 -a 1 -x {3.0 0.0 10 ------- null}
- -t 0.259413333333333 -s 2 -d 1 -p ack -e 40 -c 1 -i 25 -a 1 -x {3.0 0.0 10 ------- null}
h -t 0.259413333333333 -s 2 -d 1 -p ack -e 40 -c 1 -i 25 -a 1 -x {3.0 0.0 -1 ------- null}
r -t 0.260474666666667 -s 2 -d 3 -p tcp -e 1040 -c 1 -i 19 -a 1 -x {0.0 3.0 12 ------- null}
+ -t 0.260474666666667 -s 3 -d 2 -p ack -e 40 -c 1 -i 27 -a 1 -x {3.0 0.0 12 ------- null}
- -t 0.260474666666667 -s 3 -d 2 -p ack -e 40 -c 1 -i 27 -a 1 -x {3.0 0.0 12 ------- null}
h -t 0.260474666666667 -s 3 -d 2 -p ack -e 40 -c 1 -i 27 -a 1 -x {3.0 0.0 -1 ------- null}
r -t 0.260736 -s 1 -d 2 -p tcp -e 1040 -c 1 -i 21 -a 1 -x {0.0 3.0 14 ------- null}
+ -t 0.260736 -s 2 -d 3 -p tcp -e 1040 -c 1 -i 21 -a 1 -x {0.0 3.0 14 ------- null}
- -t 0.260736 -s 2 -d 3 -p tcp -e 1040 -c 1 -i 21 -a 1 -x {0.0 3.0 14 ------- null}
h -t 0.260736 -s 2 -d 3 -p tcp -e 1040 -c 1 -i 21 -a 1 -x {0.0 3.0 -1 ------- null}
r -t 0.263018666666667 -s 1 -d 0 -p ack -e 40 -c 1 -i 22 -a 1 -x {3.0 0.0 7 ------- null}
+ -t 0.263018666666667 -s 0 -d 1 -p tcp -e 1040 -c 1 -i 28 -a 1 -x {0.0 3.0 15 ------- null}
- -t 0.263018666666667 -s 0 -d 1 -p tcp -e 1040 -c 1 -i 28 -a 1 -x {0.0 3.0 15 ------- null}
h -t 0.263018666666667 -s 0 -d 1 -p tcp -e 1040 -c 1 -i 28 -a 1 -x {0.0 3.0 -1 ------- null}
+ -t 0.263018666666667 -s 0 -d 1 -p tcp -e 1040 -c 1 -i 29 -a 1 -x {0.0 3.0 16 ------- null}
- -t 0.263850666666667 -s 0 -d 1 -p tcp -e 1040 -c 1 -i 29 -a 1 -x {0.0 3.0 16 ------- null}
h -t 0.263850666666667 -s 0 -d 1 -p tcp -e 1040 -c 1 -i 29 -a 1 -x {0.0 3.0 -1 ------- null}
r -t 0.26408 -s 2 -d 1 -p ack -e 40 -c 1 -i 24 -a 1 -x {3.0 0.0 9 ------- null}
+ -t 0.26408 -s 1 -d 0 -p ack -e 40 -c 1 -i 24 -a 1 -x {3.0 0.0 9 ------- null}
- -t 0.26408 -s 1 -d 0 -p ack -e 40 -c 1 -i 24 -a 1 -x {3.0 0.0 9 ------- null}
h -t 0.26408 -s 1 -d 0 -p ack -e 40 -c 1 -i 24 -a 1 -x {3.0 0.0 -1 ------- null}
r -t 0.26496 -s 3 -d 2 -p ack -e 40 -c 1 -i 26 -a 1 -x {3.0 0.0 11 ------- null}
+ -t 0.26496 -s 2 -d 1 -p ack -e 40 -c 1 -i 26 -a 1 -x {3.0 0.0 11 ------- null}
- -t 0.26496 -s 2 -d 1 -p ack -e 40 -c 1 -i 26 -a 1 -x {3.0 0.0 11 ------- null}
h -t 0.26496 -s 2 -d 1 -p ack -e 40 -c 1 -i 26 -a 1 -x {3.0 0.0 -1 ------- null}
r -t 0.266021333333333 -s 2 -d 3 -p tcp -e 1040 -c 1 -i 20 -a 1 -x {0.0 3.0 13 ------- null}
+ -t 0.266021333333333 -s 3 -d 2 -p ack -e 40 -c 1 -i 30 -a 1 -x {3.0 0.0 13 ------- null}
- -t 0.266021333333333 -s 3 -d 2 -p ack -e 40 -c 1 -i 30 -a 1 -x {3.0 0.0 13 ------- null}
h -t 0.266021333333333 -s 3 -d 2 -p ack -e 40 -c 1 -i 30 -a 1 -x {3.0 0.0 -1 ------- null}
r -t 0.268565333333333 -s 1 -d 0 -p ack -e 40 -c 1 -i 23 -a 1 -x {3.0 0.0 8 ------- null}
+ -t 0.268565333333333 -s 0 -d 1 -p tcp -e 1040 -c 1 -i 31 -a 1 -x {0.0 3.0 17 ------- null}
- -t 0.268565333333333 -s 0 -d 1 -p tcp -e 1040 -c 1 -i 31 -a 1 -x {0.0 3.0 17 ------- null}
h -t 0.268565333333333 -s 0 -d 1 -p tcp -e 1040 -c 1 -i 31 -a 1 -x {0.0 3.0 -1 ------- null}
+ -t 0.268565333333333 -s 0 -d 1 -p tcp -e 1040 -c 1 -i 32 -a 1 -x {0.0 3.0 18 ------- null}
- -t 0.269397333333333 -s 0 -d 1 -p tcp -e 1040 -c 1 -i 32 -a 1 -x {0.0 3.0 18 ------- null}
h -t 0.269397333333333 -s 0 -d 1 -p tcp -e 1040 -c 1 -i 32 -a 1 -x {0.0 3.0 -1 ------- null}