V -t * -v 1.0a5 -a 0
A -t * -n 1 -p 0 -o 0xffffffff -c 31 -a 1
A -t * -h 1 -m 2147483647 -s 0
n -t * -a 4 -s 4 -S UP -v circle -c black -i black
n -t * -a 0 -s 0 -S UP -v circle -c black -i black
n -t * -a 5 -s 5 -S UP -v circle -c black -i black
n -t * -a 1 -s 1 -S UP -v circle -c black -i black
n -t * -a 2 -s 2 -S UP -v circle -c black -i black
n -t * -a 3 -s 3 -S UP -v circle -c black -i black
l -t * -s 0 -d 1 -S UP -r 10000000 -D 0.01 -c black
l -t * -s 1 -d 4 -S UP -r 10000000 -D 0.01 -c black
l -t * -s 1 -d 2 -S UP -r 10000000 -D 0.01 -c black
l -t * -s 2 -d 3 -S UP -r 10000000 -D 0.01 -c black
l -t * -s 2 -d 5 -S UP -r 10000000 -D 0.01 -c black
+ -t 0 -s 1 -d 2 -p cbr -e 1000 -c 3 -i 0 -a 3 -x {1.0 2.0 0 ------- null}
- -t 0 -s 1 -d 2 -p cbr -e 1000 -c 3 -i 0 -a 3 -x {1.0 2.0 0 ------- null}
h -t 0 -s 1 -d 2 -p cbr -e 1000 -c 3 -i 0 -a 3 -x {1.0 2.0 -1 ------- null}
+ -t 0 -s 0 -d 1 -p tcp -e 40 -c 2 -i 1 -a 2 -x {0.0 3.0 0 ------- null}
- -t 0 -s 0 -d 1 -p tcp -e 40 -c 2 -i 1 -a 2 -x {0.0 3.0 0 ------- null}
h -t 0 -s 0 -d 1 -p tcp -e 40 -c 2 -i 1 -a 2 -x {0.0 3.0 -1 ------- null}
+ -t 0 -s 4 -d 1 -p tcp -e 40 -c 1 -i 2 -a 1 -x {4.0 5.0 0 ------- null}
- -t 0 -s 4 -d 1 -p tcp -e 40 -c 1 -i 2 -a 1 -x {4.0 5.0 0 ------- null}
h -t 0 -s 4 -d 1 -p tcp -e 40 -c 1 -i 2 -a 1 -x {4.0 5.0 -1 ------- null}
+ -t 0.000421052631578947 -s 1 -d 2 -p cbr -e 1000 -c 3 -i 3 -a 3 -x {1.0 2.0 1 ------- null}
- -t 0.0008 -s 1 -d 2 -p cbr -e 1000 -c 3 -i 3 -a 3 -x {1.0 2.0 1 ------- null}
h -t 0.0008 -s 1 -d 2 -p cbr -e 1000 -c 3 -i 3 -a 3 -x {1.0 2.0 -1 ------- null}
+ -t 0.000842105263157895 -s 1 -d 2 -p cbr -e 1000 -c 3 -i 4 -a 3 -x {1.0 2.0 2 ------- null}
+ -t 0.00126315789473684 -s 1 -d 2 -p cbr -e 1000 -c 3 -i 5 -a 3 -x {1.0 2.0 3 ------- null}
- -t 0.0016 -s 1 -d 2 -p cbr -e 1000 -c 3 -i 4 -a 3 -x {1.0 2.0 2 ------- null}
h -t 0.0016 -s 1 -d 2 -p cbr -e 1000 -c 3 -i 4 -a 3 -x {1.0 2.0 -1 ------- null}
+ -t 0.00168421052631579 -s 1 -d 2 -p cbr -e 1000 -c 3 -i 6 -a 3 -x {1.0 2.0 4 ------- null}
+ -t 0.00210526315789474 -s 1 -d 2 -p cbr -e 1000 -c 3 -i 7 -a 3 -x {1.0 2.0 5 ------- null}
- -t 0.0024 -s 1 -d 2 -p cbr -e 1000 -c 3 -i 5 -a 3 -x {1.0 2.0 3 ------- null}
h -t 0.0024 -s 1 -d 2 -p cbr -e 1000 -c 3 -i 5 -a 3 -x {1.0 2.0 -1 ------- null}
+ -t 0.00252631578947368 -s 1 -d 2 -p cbr -e 1000 -c 3 -i 8 -a 3 -x {1.0 2.0 6 ------- null}
+ -t 0.00294736842105263 -s 1 -d 2 -p cbr -e 1000 -c 3 -i 9 -a 3 -x {1.0 2.0 7 ------- null}
- -t 0.0032 -s 1 -d 2 -p cbr -e 1000 -c 3 -i 6 -a 3 -x {1.0 2.0 4 ------- null}
h -t 0.0032 -s 1 -d 2 -p cbr -e 1000 -c 3 -i 6 -a 3 -x {1.0 2.0 -1 ------- null}
+ -t 0.00336842105263158 -s 1 -d 2 -p cbr -e 1000 -c 3 -i 10 -a 3 -x {1.0 2.0 8 ------- null}
+ -t 0.00378947368421053 -s 1 -d 2 -p cbr -e 1000 -c 3 -i 11 -a 3 -x {1.0 2.0 9 ------- null}
- -t 0.004 -s 1 -d 2 -p cbr -e 1000 -c 3 -i 7 -a 3 -x {1.0 2.0 5 ------- null}
h -t 0.004 -s 1 -d 2 -p cbr -e 1000 -c 3 -i 7 -a 3 -x {1.0 2.0 -1 ------- null}
+ -t 0.00421052631578947 -s 1 -d 2 -p cbr -e 1000 -c 3 -i 12 -a 3 -x {1.0 2.0 10 ------- null}
+ -t 0.00463157894736842 -s 1 -d 2 -p cbr -e 1000 -c 3 -i 13 -a 3 -x {1.0 2.0 11 ------- null}
- -t 0.0048 -s 1 -d 2 -p cbr -e 1000 -c 3 -i 8 -a 3 -x {1.0 2.0 6 ------- null}
h -t 0.0048 -s 1 -d 2 -p cbr -e 1000 -c 3 -i 8 -a 3 -x {1.0 2.0 -1 ------- null}
+ -t 0.00505263157894737 -s 1 -d 2 -p cbr -e 1000 -c 3 -i 14 -a 3 -x {1.0 2.0 12 ------- null}
+ -t 0.00547368421052631 -s 1 -d 2 -p cbr -e 1000 -c 3 -i 15 -a 3 -x {1.0 2.0 13 ------- null}
- -t 0.0056 -s 1 -d 2 -p cbr -e 1000 -c 3 -i 9 -a 3 -x {1.0 2.0 7 ------- null}
h -t 0.0056 -s 1 -d 2 -p cbr -e 1000 -c 3 -i 9 -a 3 -x {1.0 2.0 -1 ------- null}
+ -t 0.00589473684210526 -s 1 -d 2 -p cbr -e 1000 -c 3 -i 16 -a 3 -x {1.0 2.0 14 ------- null}
+ -t 0.00631578947368421 -s 1 -d 2 -p cbr -e 1000 -c 3 -i 17 -a 3 -x {1.0 2.0 15 ------- null}
- -t 0.0064 -s 1 -d 2 -p cbr -e 1000 -c 3 -i 10 -a 3 -x {1.0 2.0 8 ------- null}
h -t 0.0064 -s 1 -d 2 -p cbr -e 1000 -c 3 -i 10 -a 3 -x {1.0 2.0 -1 ------- null}
+ -t 0.00673684210526316 -s 1 -d 2 -p cbr -e 1000 -c 3 -i 18 -a 3 -x {1.0 2.0 16 ------- null}
+ -t 0.0071578947368421 -s 1 -d 2 -p cbr -e 1000 -c 3 -i 19 -a 3 -x {1.0 2.0 17 ------- null}
- -t 0.0072 -s 1 -d 2 -p cbr -e 1000 -c 3 -i 11 -a 3 -x {1.0 2.0 9 ------- null}
h -t 0.0072 -s 1 -d 2 -p cbr -e 1000 -c 3 -i 11 -a 3 -x {1.0 2.0 -1 ------- null}
+ -t 0.00757894736842105 -s 1 -d 2 -p cbr -e 1000 -c 3 -i 20 -a 3 -x {1.0 2.0 18 ------- null}
+ -t 0.008 -s 1 -d 2 -p cbr -e 1000 -c 3 -i 21 -a 3 -x {1.0 2.0 19 ------- null}
- -t 0.008 -s 1 -d 2 -p cbr -e 1000 -c 3 -i 12 -a 3 -x {1.0 2.0 10 ------- null}
h -t 0.008 -s 1 -d 2 -p cbr -e 1000 -c 3 -i 12 -a 3 -x {1.0 2.0 -1 ------- null}
+ -t 0.00842105263157894 -s 1 -d 2 -p cbr -e 1000 -c 3 -i 22 -a 3 -x {1.0 2.0 20 ------- null}
- -t 0.0088 -s 1 -d 2 -p cbr -e 1000 -c 3 -i 13 -a 3 -x {1.0 2.0 11 ------- null}
h -t 0.0088 -s 1 -d 2 -p cbr -e 1000 -c 3 -i 13 -a 3 -x {1.0 2.0 -1 ------- null}
+ -t 0.00884210526315789 -s 1 -d 2 -p cbr -e 1000 -c 3 -i 23 -a 3 -x {1.0 2.0 21 ------- null}
+ -t 0.00926315789473684 -s 1 -d 2 -p cbr -e 1000 -c 3 -i 24 -a 3 -x {1.0 2.0 22 ------- null}
- -t 0.0096 -s 1 -d 2 -p cbr -e 1000 -c 3 -i 14 -a 3 -x {1.0 2.0 12 ------- null}
h -t 0.0096 -s 1 -d 2 -p cbr -e 1000 -c 3 -i 14 -a 3 -x {1.0 2.0 -1 ------- null}
+ -t 0.00968421052631578 -s 1 -d 2 -p cbr -e 1000 -c 3 -i 25 -a 3 -x {1.0 2.0 23 ------- null}
r -t 0.010032 -s 0 -d 1 -p tcp -e 40 -c 2 -i 1 -a 2 -x {0.0 3.0 0 ------- null}
+ -t 0.010032 -s 1 -d 2 -p tcp -e 40 -c 2 -i 1 -a 2 -x {0.0 3.0 0 ------- null}
r -t 0.010032 -s 4 -d 1 -p tcp -e 40 -c 1 -i 2 -a 1 -x {4.0 5.0 0 ------- null}
+ -t 0.010032 -s 1 -d 2 -p tcp -e 40 -c 1 -i 2 -a 1 -x {4.0 5.0 0 ------- null}
+ -t 0.0101052631578947 -s 1 -d 2 -p cbr -e 1000 -c 3 -i 26 -a 3 -x {1.0 2.0 24 ------- null}
- -t 0.0104 -s 1 -d 2 -p cbr -e 1000 -c 3 -i 15 -a 3 -x {1.0 2.0 13 ------- null}
h -t 0.0104 -s 1 -d 2 -p cbr -e 1000 -c 3 -i 15 -a 3 -x {1.0 2.0 -1 ------- null}
+ -t 0.0105263157894737 -s 1 -d 2 -p cbr -e 1000 -c 3 -i 27 -a 3 -x {1.0 2.0 25 ------- null}
r -t 0.0108 -s 1 -d 2 -p cbr -e 1000 -c 3 -i 0 -a 3 -x {1.0 2.0 0 ------- null}
+ -t 0.0109473684210526 -s 1 -d 2 -p cbr -e 1000 -c 3 -i 28 -a 3 -x {1.0 2.0 26 ------- null}
- -t 0.0112 -s 1 -d 2 -p cbr -e 1000 -c 3 -i 16 -a 3 -x {1.0 2.0 14 ------- null}
h -t 0.0112 -s 1 -d 2 -p cbr -e 1000 -c 3 -i 16 -a 3 -x {1.0 2.0 -1 ------- null}
+ -t 0.0113684210526316 -s 1 -d 2 -p cbr -e 1000 -c 3 -i 29 -a 3 -x {1.0 2.0 27 ------- null}
r -t 0.0116 -s 1 -d 2 -p cbr -e 1000 -c 3 -i 3 -a 3 -x {1.0 2.0 1 ------- null}
+ -t 0.0117894736842105 -s 1 -d 2 -p cbr -e 1000 -c 3 -i 30 -a 3 -x {1.0 2.0 28 ------- null}
- -t 0.012 -s 1 -d 2 -p cbr -e 1000 -c 3 -i 17 -a 3 -x {1.0 2.0 15 ------- null}
h -t 0.012 -s 1 -d 2 -p cbr -e 1000 -c 3 -i 17 -a 3 -x {1.0 2.0 -1 ------- null}
+ -t 0.0122105263157895 -s 1 -d 2 -p cbr -e 1000 -c 3 -i 31 -a 3 -x {1.0 2.0 29 ------- null}
r -t 0.0124 -s 1 -d 2 -p cbr -e 1000 -c 3 -i 4 -a 3 -x {1.0 2.0 2 ------- null}
+ -t 0.0126315789473684 -s 1 -d 2 -p cbr -e 1000 -c 3 -i 32 -a 3 -x {1.0 2.0 30 ------- null}
- -t 0.0128 -s 1 -d 2 -p cbr -e 1000 -c 3 -i 18 -a 3 -x {1.0 2.0 16 ------- null}
h -t 0.0128 -s 1 -d 2 -p cbr -e 1000 -c 3 -i 18 -a 3 -x {1.0 2.0 -1 ------- null}
+ -t 0.0130526315789474 -s 1 -d 2 -p cbr -e 1000 -c 3 -i 33 -a 3 -x {1.0 2.0 31 ------- null}
r -t 0.0132 -s 1 -d 2 -p cbr -e 1000 -c 3 -i 5 -a 3 -x {1.0 2.0 3 ------- null}
+ -t 0.0134736842105263 -s 1 -d 2 -p cbr -e 1000 -c 3 -i 34 -a 3 -x {1.0 2.0 32 ------- null}
- -t 0.0136 -s 1 -d 2 -p cbr -e 1000 -c 3 -i 19 -a 3 -x {1.0 2.0 17 ------- null}
h -t 0.0136 -s 1 -d 2 -p cbr -e 1000 -c 3 -i 19 -a 3 -x {1.0 2.0 -1 ------- null}
+ -t 0.0138947368421053 -s 1 -d 2 -p cbr -e 1000 -c 3 -i 35 -a 3 -x {1.0 2.0 33 ------- null}
r -t 0.014 -s 1 -d 2 -p cbr -e 1000 -c 3 -i 6 -a 3 -x {1.0 2.0 4 ------- null}
+ -t 0.0143157894736842 -s 1 -d 2 -p cbr -e 1000 -c 3 -i 36 -a 3 -x {1.0 2.0 34 ------- null}
- -t 0.0144 -s 1 -d 2 -p cbr -e 1000 -c 3 -i 20 -a 3 -x {1.0 2.0 18 ------- null}
h -t 0.0144 -s 1 -d 2 -p cbr -e 1000 -c 3 -i 20 -a 3 -x {1.0 2.0 -1 ------- null}
+ -t 0.0147368421052631 -s 1 -d 2 -p cbr -e 1000 -c 3 -i 37 -a 3 -x {1.0 2.0 35 ------- null}
r -t 0.0148 -s 1 -d 2 -p cbr -e 1000 -c 3 -i 7 -a 3 -x {1.0 2.0 5 ------- null}
+ -t 0.0151578947368421 -s 1 -d 2 -p cbr -e 1000 -c 3 -i 38 -a 3 -x {1.0 2.0 36 ------- null}
- -t 0.0152 -s 1 -d 2 -p cbr -e 1000 -c 3 -i 21 -a 3 -x {1.0 2.0 19 ------- null}
h -t 0.0152 -s 1 -d 2 -p cbr -e 1000 -c 3 -i 21 -a 3 -x {1.0 2.0 -1 ------- null}
+ -t 0.015578947368421 -s 1 -d 2 -p cbr -e 1000 -c 3 -i 39 -a 3 -x {1.0 2.0 37 ------- null}
r -t 0.0156 -s 1 -d 2 -p cbr -e 1000 -c 3 -i 8 -a 3 -x {1.0 2.0 6 ------- null}
+ -t 0.016 -s 1 -d 2 -p cbr -e 1000 -c 3 -i 40 -a 3 -x {1.0 2.0 38 ------- null}
- -t 0.016 -s 1 -d 2 -p cbr -e 1000 -c 3 -i 22 -a 3 -x {1.0 2.0 20 ------- null}
h -t 0.016 -s 1 -d 2 -p cbr -e 1000 -c 3 -i 22 -a 3 -x {1.0 2.0 -1 ------- null}
r -t 0.0164 -s 1 -d 2 -p cbr -e 1000 -c 3 -i 9 -a 3 -x {1.0 2.0 7 ------- null}
+ -t 0.0164210526315789 -s 1 -d 2 -p cbr -e 1000 -c 3 -i 41 -a 3 -x {1.0 2.0 39 ------- null}
- -t 0.0168 -s 1 -d 2 -p cbr -e 1000 -c 3 -i 23 -a 3 -x {1.0 2.0 21 ------- null}
h -t 0.0168 -s 1 -d 2 -p cbr -e 1000 -c 3 -i 23 -a 3 -x {1.0 2.0 -1 ------- null}
+ -t 0.0168421052631579 -s 1 -d 2 -p cbr -e 1000 -c 3 -i 42 -a 3 -x {1.0 2.0 40 ------- null}
r -t 0.0172 -s 1 -d 2 -p cbr -e 1000 -c 3 -i 10 -a 3 -x {1.0 2.0 8 ------- null}
+ -t 0.0172631578947368 -s 1 -d 2 -p cbr -e 1000 -c 3 -i 43 -a 3 -x {1.0 2.0 41 ------- null}
- -t 0.0176 -s 1 -d 2 -p cbr -e 1000 -c 3 -i 24 -a 3 -x {1.0 2.0 22 ------- null}
h -t 0.0176 -s 1 -d 2 -p cbr -e 1000 -c 3 -i 24 -a 3 -x {1.0 2.0 -1 ------- null}
+ -t 0.0176842105263158 -s 1 -d 2 -p cbr -e 1000 -c 3 -i 44 -a 3 -x {1.0 2.0 42 ------- null}
r -t 0.018 -s 1 -d 2 -p cbr -e 1000 -c 3 -i 11 -a 3 -x {1.0 2.0 9 ------- null}
+ -t 0.0181052631578947 -s 1 -d 2 -p cbr -e 1000 -c 3 -i 45 -a 3 -x {1.0 2.0 43 ------- null}
- -t 0.0184 -s 1 -d 2 -p cbr -e 1000 -c 3 -i 25 -a 3 -x {1.0 2.0 23 ------- null}
h -t 0.0184 -s 1 -d 2 -p cbr -e 1000 -c 3 -i 25 -a 3 -x {1.0 2.0 -1 ------- null}
+ -t 0.0185263157894737 -s 1 -d 2 -p cbr -e 1000 -c 3 -i 46 -a 3 -x {1.0 2.0 44 ------- null}
r -t 0.0188 -s 1 -d 2 -p cbr -e 1000 -c 3 -i 12 -a 3 -x {1.0 2.0 10 ------- null}
+ -t 0.0189473684210526 -s 1 -d 2 -p cbr -e 1000 -c 3 -i 47 -a 3 -x {1.0 2.0 45 ------- null}
- -t 0.0192 -s 1 -d 2 -p tcp -e 40 -c 2 -i 1 -a 2 -x {0.0 3.0 0 ------- null}
h -t 0.0192 -s 1 -d 2 -p tcp -e 40 -c 2 -i 1 -a 2 -x {0.0 3.0 -1 ------- null}
- -t 0.019232 -s 1 -d 2 -p tcp -e 40 -c 1 -i 2 -a 1 -x {4.0 5.0 0 ------- null}
h -t 0.019232 -s 1 -d 2 -p tcp -e 40 -c 1 -i 2 -a 1 -x {4.0 5.0 -1 ------- null}
- -t 0.019264 -s 1 -d 2 -p cbr -e 1000 -c 3 -i 26 -a 3 -x {1.0 2.0 24 ------- null}
h -t 0.019264 -s 1 -d 2 -p cbr -e 1000 -c 3 -i 26 -a 3 -x {1.0 2.0 -1 ------- null}
+ -t 0.0193684210526316 -s 1 -d 2 -p cbr -e 1000 -c 3 -i 48 -a 3 -x {1.0 2.0 46 ------- null}
r -t 0.0196 -s 1 -d 2 -p cbr -e 1000 -c 3 -i 13 -a 3 -x {1.0 2.0 11 ------- null}
+ -t 0.0197894736842105 -s 1 -d 2 -p cbr -e 1000 -c 3 -i 49 -a 3 -x {1.0 2.0 47 ------- null}
- -t 0.020064 -s 1 -d 2 -p cbr -e 1000 -c 3 -i 27 -a 3 -x {1.0 2.0 25 ------- null}
h -t 0.020064 -s 1 -d 2 -p cbr -e 1000 -c 3 -i 27 -a 3 -x {1.0 2.0 -1 ------- null}
+ -t 0.0202105263157895 -s 1 -d 2 -p cbr -e 1000 -c 3 -i 50 -a 3 -x {1.0 2.0 48 ------- null}
r -t 0.0204 -s 1 -d 2 -p cbr -e 1000 -c 3 -i 14 -a 3 -x {1.0 2.0 12 ------- null}
+ -t 0.0206315789473684 -s 1 -d 2 -p cbr -e 1000 -c 3 -i 51 -a 3 -x {1.0 2.0 49 ------- null}
- -t 0.020864 -s 1 -d 2 -p cbr -e 1000 -c 3 -i 28 -a 3 -x {1.0 2.0 26 ------- null}
h -t 0.020864 -s 1 -d 2 -p cbr -e 1000 -c 3 -i 28 -a 3 -x {1.0 2.0 -1 ------- null}
+ -t 0.0210526315789474 -s 1 -d 2 -p cbr -e 1000 -c 3 -i 52 -a 3 -x {1.0 2.0 50 ------- null}
r -t 0.0212 -s 1 -d 2 -p cbr -e 1000 -c 3 -i 15 -a 3 -x {1.0 2.0 13 ------- null}
+ -t 0.0214736842105263 -s 1 -d 2 -p cbr -e 1000 -c 3 -i 53 -a 3 -x {1.0 2.0 51 ------- null}
- -t 0.021664 -s 1 -d 2 -p cbr -e 1000 -c 3 -i 29 -a 3 -x {1.0 2.0 27 ------- null}
h -t 0.021664 -s 1 -d 2 -p cbr -e 1000 -c 3 -i 29 -a 3 -x {1.0 2.0 -1 ------- null}
+ -t 0.0218947368421052 -s 1 -d 2 -p cbr -e 1000 -c 3 -i 54 -a 3 -x {1.0 2.0 52 ------- null}
r -t 0.022 -s 1 -d 2 -p cbr -e 1000 -c 3 -i 16 -a 3 -x {1.0 2.0 14 ------- null}
+ -t 0.0223157894736842 -s 1 -d 2 -p cbr -e 1000 -c 3 -i 55 -a 3 -x {1.0 2.0 53 ------- null}
- -t 0.022464 -s 1 -d 2 -p cbr -e 1000 -c 3 -i 30 -a 3 -x {1.0 2.0 28 ------- null}
h -t 0.022464 -s 1 -d 2 -p cbr -e 1000 -c 3 -i 30 -a 3 -x {1.0 2.0 -1 ------- null}
+ -t 0.0227368421052631 -s 1 -d 2 -p cbr -e 1000 -c 3 -i 56 -a 3 -x {1.0 2.0 54 ------- null}
r -t 0.0228 -s 1 -d 2 -p cbr -e 1000 -c 3 -i 17 -a 3 -x {1.0 2.0 15 ------- null}
+ -t 0.0231578947368421 -s 1 -d 2 -p cbr -e 1000 -c 3 -i 57 -a 3 -x {1.0 2.0 55 ------- null}
- -t 0.023264 -s 1 -d 2 -p cbr -e 1000 -c 3 -i 31 -a 3 -x {1.0 2.0 29 ------- null}
h -t 0.023264 -s 1 -d 2 -p cbr -e 1000 -c 3 -i 31 -a 3 -x {1.0 2.0 -1 ------- null}
+ -t 0.023578947368421 -s 1 -d 2 -p cbr -e 1000 -c 3 -i 58 -a 3 -x {1.0 2.0 56 ------- null}
r -t 0.0236 -s 1 -d 2 -p cbr -e 1000 -c 3 -i 18 -a 3 -x {1.0 2.0 16 ------- null}
+ -t 0.024 -s 1 -d 2 -p cbr -e 1000 -c 3 -i 59 -a 3 -x {1.0 2.0 57 ------- null}
- -t 0.024064 -s 1 -d 2 -p cbr -e 1000 -c 3 -i 32 -a 3 -x {1.0 2.0 30 ------- null}
h -t 0.024064 -s 1 -d 2 -p cbr -e 1000 -c 3 -i 32 -a 3 -x {1.0 2.0 -1 ------- null}
r -t 0.0244 -s 1 -d 2 -p cbr -e 1000 -c 3 -i 19 -a 3 -x {1.0 2.0 17 ------- null}
+ -t 0.0244210526315789 -s 1 -d 2 -p cbr -e 1000 -c 3 -i 60 -a 3 -x {1.0 2.0 58 ------- null}
+ -t 0.0248421052631579 -s 1 -d 2 -p cbr -e 1000 -c 3 -i 61 -a 3 -x {1.0 2.0 59 ------- null}
- -t 0.024864 -s 1 -d 2 -p cbr -e 1000 -c 3 -i 33 -a 3 -x {1.0 2.0 31 ------- null}
h -t 0.024864 -s 1 -d 2 -p cbr -e 1000 -c 3 -i 33 -a 3 -x {1.0 2.0 -1 ------- null}
r -t 0.0252 -s 1 -d 2 -p cbr -e 1000 -c 3 -i 20 -a 3 -x {1.0 2.0 18 ------- null}
+ -t 0.0252631578947368 -s 1 -d 2 -p cbr -e 1000 -c 3 -i 62 -a 3 -x {1.0 2.0 60 ------- null}
- -t 0.025664 -s 1 -d 2 -p cbr -e 1000 -c 3 -i 34 -a 3 -x {1.0 2.0 32 ------- null}
h -t 0.025664 -s 1 -d 2 -p cbr -e 1000 -c 3 -i 34 -a 3 -x {1.0 2.0 -1 ------- null}
+ -t 0.0256842105263158 -s 1 -d 2 -p cbr -e 1000 -c 3 -i 63 -a 3 -x {1.0 2.0 61 ------- null}
r -t 0.026 -s 1 -d 2 -p cbr -e 1000 -c 3 -i 21 -a 3 -x {1.0 2.0 19 ------- null}
+ -t 0.0261052631578947 -s 1 -d 2 -p cbr -e 1000 -c 3 -i 64 -a 3 -x {1.0 2.0 62 ------- null}
- -t 0.026464 -s 1 -d 2 -p cbr -e 1000 -c 3 -i 35 -a 3 -x {1.0 2.0 33 ------- null}
h -t 0.026464 -s 1 -d 2 -p cbr -e 1000 -c 3 -i 35 -a 3 -x {1.0 2.0 -1 ------- null}
+ -t 0.0265263157894737 -s 1 -d 2 -p cbr -e 1000 -c 3 -i 65 -a 3 -x {1.0 2.0 63 ------- null}
r -t 0.0268 -s 1 -d 2 -p cbr -e 1000 -c 3 -i 22 -a 3 -x {1.0 2.0 20 ------- null}
+ -t 0.0269473684210526 -s 1 -d 2 -p cbr -e 1000 -c 3 -i 66 -a 3 -x {1.0 2.0 64 ------- null}
- -t 0.027264 -s 1 -d 2 -p cbr -e 1000 -c 3 -i 36 -a 3 -x {1.0 2.0 34 ------- null}
h -t 0.027264 -s 1 -d 2 -p cbr -e 1000 -c 3 -i 36 -a 3 -x {1.0 2.0 -1 ------- null}
+ -t 0.0273684210526316 -s 1 -d 2 -p cbr -e 1000 -c 3 -i 67 -a 3 -x {1.0 2.0 65 ------- null}
r -t 0.0276 -s 1 -d 2 -p cbr -e 1000 -c 3 -i 23 -a 3 -x {1.0 2.0 21 ------- null}
+ -t 0.0277894736842105 -s 1 -d 2 -p cbr -e 1000 -c 3 -i 68 -a 3 -x {1.0 2.0 66 ------- null}
- -t 0.028064 -s 1 -d 2 -p cbr -e 1000 -c 3 -i 37 -a 3 -x {1.0 2.0 35 ------- null}
h -t 0.028064 -s 1 -d 2 -p cbr -e 1000 -c 3 -i 37 -a 3 -x {1.0 2.0 -1 ------- null}
+ -t 0.0282105263157895 -s 1 -d 2 -p cbr -e 1000 -c 3 -i 69 -a 3 -x {1.0 2.0 67 ------- null}
r -t 0.0284 -s 1 -d 2 -p cbr -e 1000 -c 3 -i 24 -a 3 -x {1.0 2.0 22 ------- null}
+ -t 0.0286315789473684 -s 1 -d 2 -p cbr -e 1000 -c 3 -i 70 -a 3 -x {1.0 2.0 68 ------- null}
- -t 0.028864 -s 1 -d 2 -p cbr -e 1000 -c 3 -i 38 -a 3 -x {1.0 2.0 36 ------- null}
h -t 0.028864 -s 1 -d 2 -p cbr -e 1000 -c 3 -i 38 -a 3 -x {1.0 2.0 -1 ------- null}
+ -t 0.0290526315789473 -s 1 -d 2 -p cbr -e 1000 -c 3 -i 71 -a 3 -x {1.0 2.0 69 ------- null}
r -t 0.0292 -s 1 -d 2 -p cbr -e 1000 -c 3 -i 25 -a 3 -x {1.0 2.0 23 ------- null}
r -t 0.029232 -s 1 -d 2 -p tcp -e 40 -c 2 -i 1 -a 2 -x {0.0 3.0 0 ------- null}
+ -t 0.029232 -s 2 -d 3 -p tcp -e 40 -c 2 -i 1 -a 2 -x {0.0 3.0 0 ------- null}
- -t 0.029232 -s 2 -d 3 -p tcp -e 40 -c 2 -i 1 -a 2 -x {0.0 3.0 0 ------- null}
h -t 0.029232 -s 2 -d 3 -p tcp -e 40 -c 2 -i 1 -a 2 -x {0.0 3.0 -1 ------- null}
r -t 0.029264 -s 1 -d 2 -p tcp -e 40 -c 1 -i 2 -a 1 -x {4.0 5.0 0 ------- null}
+ -t 0.029264 -s 2 -d 5 -p tcp -e 40 -c 1 -i 2 -a 1 -x {4.0 5.0 0 ------- null}
- -t 0.029264 -s 2 -d 5 -p tcp -e 40 -c 1 -i 2 -a 1 -x {4.0 5.0 0 ------- null}
h -t 0.029264 -s 2 -d 5 -p tcp -e 40 -c 1 -i 2 -a 1 -x {4.0 5.0 -1 ------- null}
+ -t 0.0294736842105263 -s 1 -d 2 -p cbr -e 1000 -c 3 -i 72 -a 3 -x {1.0 2.0 70 ------- null}
- -t 0.029664 -s 1 -d 2 -p cbr -e 1000 -c 3 -i 39 -a 3 -x {1.0 2.0 37 ------- null}
h -t 0.029664 -s 1 -d 2 -p cbr -e 1000 -c 3 -i 39 -a 3 -x {1.0 2.0 -1 ------- null}
+ -t 0.0298947368421052 -s 1 -d 2 -p cbr -e 1000 -c 3 -i 73 -a 3 -x {1.0 2.0 71 ------- null}
r -t 0.030064 -s 1 -d 2 -p cbr -e 1000 -c 3 -i 26 -a 3 -x {1.0 2.0 24 ------- null}
+ -t 0.0303157894736842 -s 1 -d 2 -p cbr -e 1000 -c 3 -i 74 -a 3 -x {1.0 2.0 72 ------- null}
- -t 0.030464 -s 1 -d 2 -p cbr -e 1000 -c 3 -i 40 -a 3 -x {1.0 2.0 38 ------- null}
h -t 0.030464 -s 1 -d 2 -p cbr -e 1000 -c 3 -i 40 -a 3 -x {1.0 2.0 -1 ------- null}
+ -t 0.0307368421052631 -s 1 -d 2 -p cbr -e 1000 -c 3 -i 75 -a 3 -x {1.0 2.0 73 ------- null}
r -t 0.030864 -s 1 -d 2 -p cbr -e 1000 -c 3 -i 27 -a 3 -x {1.0 2.0 25 ------- null}
+ -t 0.0311578947368421 -s 1 -d 2 -p cbr -e 1000 -c 3 -i 76 -a 3 -x {1.0 2.0 74 ------- null}
- -t 0.031264 -s 1 -d 2 -p cbr -e 1000 -c 3 -i 41 -a 3 -x {1.0 2.0 39 ------- null}
h -t 0.031264 -s 1 -d 2 -p cbr -e 1000 -c 3 -i 41 -a 3 -x {1.0 2.0 -1 ------- null}
+ -t 0.031578947368421 -s 1 -d 2 -p cbr -e 1000 -c 3 -i 77 -a 3 -x {1.0 2.0 75 ------- null}
r -t 0.031664 -s 1 -d 2 -p cbr -e 1000 -c 3 -i 28 -a 3 -x {1.0 2.0 26 ------- null}
+ -t 0.032 -s 1 -d 2 -p cbr -e 1000 -c 3 -i 78 -a 3 -x {1.0 2.0 76 ------- null}
- -t 0.032064 -s 1 -d 2 -p cbr -e 1000 -c 3 -i 42 -a 3 -x {1.0 2.0 40 ------- null}
h -t 0.032064 -s 1 -d 2 -p cbr -e 1000 -c 3 -i 42 -a 3 -x {1.0 2.0 -1 ------- null}
+ -t 0.0324210526315789 -s 1 -d 2 -p cbr -e 1000 -c 3 -i 79 -a 3 -x {1.0 2.0 77 ------- null}
r -t 0.032464 -s 1 -d 2 -p cbr -e 1000 -c 3 -i 29 -a 3 -x {1.0 2.0 27 ------- null}
+ -t 0.0328421052631579 -s 1 -d 2 -p cbr -e 1000 -c 3 -i 80 -a 3 -x {1.0 2.0 78 ------- null}
- -t 0.032864 -s 1 -d 2 -p cbr -e 1000 -c 3 -i 43 -a 3 -x {1.0 2.0 41 ------- null}
h -t 0.032864 -s 1 -d 2 -p cbr -e 1000 -c 3 -i 43 -a 3 -x {1.0 2.0 -1 ------- null}
+ -t 0.0332631578947368 -s 1 -d 2 -p cbr -e 1000 -c 3 -i 81 -a 3 -x {1.0 2.0 79 ------- null}
r -t 0.033264 -s 1 -d 2 -p cbr -e 1000 -c 3 -i 30 -a 3 -x {1.0 2.0 28 ------- null}
- -t 0.033664 -s 1 -d 2 -p cbr -e 1000 -c 3 -i 44 -a 3 -x {1.0 2.0 42 ------- null}
h -t 0.033664 -s 1 -d 2 -p cbr -e 1000 -c 3 -i 44 -a 3 -x {1.0 2.0 -1 ------- null}
+ -t 0.0336842105263158 -s 1 -d 2 -p cbr -e 1000 -c 3 -i 82 -a 3 -x {1.0 2.0 80 ------- null}
r -t 0.034064 -s 1 -d 2 -p cbr -e 1000 -c 3 -i 31 -a 3 -x {1.0 2.0 29 ------- null}
+ -t 0.0341052631578947 -s 1 -d 2 -p cbr -e 1000 -c 3 -i 83 -a 3 -x {1.0 2.0 81 ------- null}
- -t 0.034464 -s 1 -d 2 -p cbr -e 1000 -c 3 -i 45 -a 3 -x {1.0 2.0 43 ------- null}
h -t 0.034464 -s 1 -d 2 -p cbr -e 1000 -c 3 -i 45 -a 3 -x {1.0 2.0 -1 ------- null}
+ -t 0.0345263157894737 -s 1 -d 2 -p cbr -e 1000 -c 3 -i 84 -a 3 -x {1.0 2.0 82 ------- null}
r -t 0.034864 -s 1 -d 2 -p cbr -e 1000 -c 3 -i 32 -a 3 -x {1.0 2.0 30 ------- null}
+ -t 0.0349473684210526 -s 1 -d 2 -p cbr -e 1000 -c 3 -i 85 -a 3 -x {1.0 2.0 83 ------- null}
- -t 0.035264 -s 1 -d 2 -p cbr -e 1000 -c 3 -i 46 -a 3 -x {1.0 2.0 44 ------- null}
h -t 0.035264 -s 1 -d 2 -p cbr -e 1000 -c 3 -i 46 -a 3 -x {1.0 2.0 -1 ------- null}
+ -t 0.0353684210526316 -s 1 -d 2 -p cbr -e 1000 -c 3 -i 86 -a 3 -x {1.0 2.0 84 ------- null}
r -t 0.035664 -s 1 -d 2 -p cbr -e 1000 -c 3 -i 33 -a 3 -x {1.0 2.0 31 ------- null}
+ -t 0.0357894736842105 -s 1 -d 2 -p cbr -e 1000 -c 3 -i 87 -a 3 -x {1.0 2.0 85 ------- null}
- -t 0.036064 -s 1 -d 2 -p cbr -e 1000 -c 3 -i 47 -a 3 -x {1.0 2.0 45 ------- null}
h -t 0.036064 -s 1 -d 2 -p cbr -e 1000 -c 3 -i 47 -a 3 -x {1.0 2.0 -1 ------- null}
+ -t 0.0362105263157894 -s 1 -d 2 -p cbr -e 1000 -c 3 -i 88 -a 3 -x {1.0 2.0 86 ------- null}
r -t 0.036464 -s 1 -d 2 -p cbr -e 1000 -c 3 -i 34 -a 3 -x {1.0 2.0 32 ------- null}
+ -t 0.0366315789473684 -s 1 -d 2 -p cbr -e 1000 -c 3 -i 89 -a 3 -x {1.0 2.0 87 ------- null}
- -t 0.036864 -s 1 -d 2 -p cbr -e 1000 -c 3 -i 48 -a 3 -x {1.0 2.0 46 ------- null}
h -t 0.036864 -s 1 -d 2 -p cbr -e 1000 -c 3 -i 48 -a 3 -x {1.0 2.0 -1 ------- null}
+ -t 0.0370526315789473 -s 1 -d 2 -p cbr -e 1000 -c 3 -i 90 -a 3 -x {1.0 2.0 88 ------- null}
r -t 0.037264 -s 1 -d 2 -p cbr -e 1000 -c 3 -i 35 -a 3 -x {1.0 2.0 33 ------- null}
+ -t 0.0374736842105263 -s 1 -d 2 -p cbr -e 1000 -c 3 -i 91 -a 3 -x {1.0 2.0 89 ------- null}
- -t 0.037664 -s 1 -d 2 -p cbr -e 1000 -c 3 -i 49 -a 3 -x {1.0 2.0 47 ------- null}
h -t 0.037664 -s 1 -d 2 -p cbr -e 1000 -c 3 -i 49 -a 3 -x {1.0 2.0 -1 ------- null}
+ -t 0.0378947368421052 -s 1 -d 2 -p cbr -e 1000 -c 3 -i 92 -a 3 -x {1.0 2.0 90 ------- null}
r -t 0.038064 -s 1 -d 2 -p cbr -e 1000 -c 3 -i 36 -a 3 -x {1.0 2.0 34 ------- null}
+ -t 0.0383157894736842 -s 1 -d 2 -p cbr -e 1000 -c 3 -i 93 -a 3 -x {1.0 2.0 91 ------- null}
- -t 0.038464 -s 1 -d 2 -p cbr -e 1000 -c 3 -i 50 -a 3 -x {1.0 2.0 48 ------- null}
h -t 0.038464 -s 1 -d 2 -p cbr -e 1000 -c 3 -i 50 -a 3 -x {1.0 2.0 -1 ------- null}
+ -t 0.0387368421052631 -s 1 -d 2 -p cbr -e 1000 -c 3 -i 94 -a 3 -x {1.0 2.0 92 ------- null}
r -t 0.038864 -s 1 -d 2 -p cbr -e 1000 -c 3 -i 37 -a 3 -x {1.0 2.0 35 ------- null}
+ -t 0.0391578947368421 -s 1 -d 2 -p cbr -e 1000 -c 3 -i 95 -a 3 -x {1.0 2.0 93 ------- null}
r -t 0.039264 -s 2 -d 3 -p tcp -e 40 -c 2 -i 1 -a 2 -x {0.0 3.0 0 ------- null}
+ -t 0.039264 -s 3 -d 2 -p ack -e 40 -c 2 -i 96 -a 2 -x {3.0 0.0 0 ------- null}
- -t 0.039264 -s 3 -d 2 -p ack -e 40 -c 2 -i 96 -a 2 -x {3.0 0.0 0 ------- null}
h -t 0.039264 -s 3 -d 2 -p ack -e 40 -c 2 -i 96 -a 2 -x {3.0 0.0 -1 ------- null}
- -t 0.039264 -s 1 -d 2 -p cbr -e 1000 -c 3 -i 51 -a 3 -x {1.0 2.0 49 ------- null}
h -t 0.039264 -s 1 -d 2 -p cbr -e 1000 -c 3 -i 51 -a 3 -x {1.0 2.0 -1 ------- null}
r -t 0.039296 -s 2 -d 5 -p tcp -e 40 -c 1 -i 2 -a 1 -x {4.0 5.0 0 ------- null}
+ -t 0.039296 -s 5 -d 2 -p ack -e 40 -c 1 -i 97 -a 1 -x {5.0 4.0 0 ------- null}
- -t 0.039296 -s 5 -d 2 -p ack -e 40 -c 1 -i 97 -a 1 -x {5.0 4.0 0 ------- null}
h -t 0.039296 -s 5 -d 2 -p ack -e 40 -c 1 -i 97 -a 1 -x {5.0 4.0 -1 ------- null}
+ -t 0.039578947368421 -s 1 -d 2 -p cbr -e 1000 -c 3 -i 98 -a 3 -x {1.0 2.0 94 ------- null}
r -t 0.039664 -s 1 -d 2 -p cbr -e 1000 -c 3 -i 38 -a 3 -x {1.0 2.0 36 ------- null}
+ -t 0.04 -s 1 -d 2 -p cbr -e 1000 -c 3 -i 99 -a 3 -x {1.0 2.0 95 ------- null}
- -t 0.040064 -s 1 -d 2 -p cbr -e 1000 -c 3 -i 52 -a 3 -x {1.0 2.0 50 ------- null}
h -t 0.040064 -s 1 -d 2 -p cbr -e 1000 -c 3 -i 52 -a 3 -x {1.0 2.0 -1 ------- null}
+ -t 0.0404210526315789 -s 1 -d 2 -p cbr -e 1000 -c 3 -i 100 -a 3 -x {1.0 2.0 96 ------- null}
r -t 0.040464 -s 1 -d 2 -p cbr -e 1000 -c 3 -i 39 -a 3 -x {1.0 2.0 37 ------- null}
+ -t 0.0408421052631579 -s 1 -d 2 -p cbr -e 1000 -c 3 -i 101 -a 3 -x {1.0 2.0 97 ------- null}
- -t 0.040864 -s 1 -d 2 -p cbr -e 1000 -c 3 -i 53 -a 3 -x {1.0 2.0 51 ------- null}
h -t 0.040864 -s 1 -d 2 -p cbr -e 1000 -c 3 -i 53 -a 3 -x {1.0 2.0 -1 ------- null}
+ -t 0.0412631578947368 -s 1 -d 2 -p cbr -e 1000 -c 3 -i 102 -a 3 -x {1.0 2.0 98 ------- null}
r -t 0.041264 -s 1 -d 2 -p cbr -e 1000 -c 3 -i 40 -a 3 -x {1.0 2.0 38 ------- null}
- -t 0.041664 -s 1 -d 2 -p cbr -e 1000 -c 3 -i 54 -a 3 -x {1.0 2.0 52 ------- null}
h -t 0.041664 -s 1 -d 2 -p cbr -e 1000 -c 3 -i 54 -a 3 -x {1.0 2.0 -1 ------- null}
+ -t 0.0416842105263158 -s 1 -d 2 -p cbr -e 1000 -c 3 -i 103 -a 3 -x {1.0 2.0 99 ------- null}
r -t 0.042064 -s 1 -d 2 -p cbr -e 1000 -c 3 -i 41 -a 3 -x {1.0 2.0 39 ------- null}
+ -t 0.0421052631578947 -s 1 -d 2 -p cbr -e 1000 -c 3 -i 104 -a 3 -x {1.0 2.0 100 ------- null}
- -t 0.042464 -s 1 -d 2 -p cbr -e 1000 -c 3 -i 55 -a 3 -x {1.0 2.0 53 ------- null}
h -t 0.042464 -s 1 -d 2 -p cbr -e 1000 -c 3 -i 55 -a 3 -x {1.0 2.0 -1 ------- null}
+ -t 0.0425263157894737 -s 1 -d 2 -p cbr -e 1000 -c 3 -i 105 -a 3 -x {1.0 2.0 101 ------- null}
r -t 0.042864 -s 1 -d 2 -p cbr -e 1000 -c 3 -i 42 -a 3 -x {1.0 2.0 40 ------- null}
+ -t 0.0429473684210526 -s 1 -d 2 -p cbr -e 1000 -c 3 -i 106 -a 3 -x {1.0 2.0 102 ------- null}
- -t 0.043264 -s 1 -d 2 -p cbr -e 1000 -c 3 -i 56 -a 3 -x {1.0 2.0 54 ------- null}
h -t 0.043264 -s 1 -d 2 -p cbr -e 1000 -c 3 -i 56 -a 3 -x {1.0 2.0 -1 ------- null}
+ -t 0.0433684210526315 -s 1 -d 2 -p cbr -e 1000 -c 3 -i 107 -a 3 -x {1.0 2.0 103 ------- null}
r -t 0.043664 -s 1 -d 2 -p cbr -e 1000 -c 3 -i 43 -a 3 -x {1.0 2.0 41 ------- null}
+ -t 0.0437894736842105 -s 1 -d 2 -p cbr -e 1000 -c 3 -i 108 -a 3 -x {1.0 2.0 104 ------- null}
d -t 0.0437894736842105 -s 1 -d 2 -p cbr -e 1000 -c 3 -i 108 -a 3 -x {1.0 2.0 104 ------- null}
- -t 0.044064 -s 1 -d 2 -p cbr -e 1000 -c 3 -i 57 -a 3 -x {1.0 2.0 55 ------- null}
h -t 0.044064 -s 1 -d 2 -p cbr -e 1000 -c 3 -i 57 -a 3 -x {1.0 2.0 -1 ------- null}
+ -t 0.0442105263157894 -s 1 -d 2 -p cbr -e 1000 -c 3 -i 109 -a 3 -x {1.0 2.0 105 ------- null}
r -t 0.044464 -s 1 -d 2 -p cbr -e 1000 -c 3 -i 44 -a 3 -x {1.0 2.0 42 ------- null}
+ -t 0.0446315789473684 -s 1 -d 2 -p cbr -e 1000 -c 3 -i 110 -a 3 -x {1.0 2.0 106 ------- null}
d -t 0.0446315789473684 -s 1 -d 2 -p cbr -e 1000 -c 3 -i 110 -a 3 -x {1.0 2.0 106 ------- null}
- -t 0.044864 -s 1 -d 2 -p cbr -e 1000 -c 3 -i 58 -a 3 -x {1.0 2.0 56 ------- null}
h -t 0.044864 -s 1 -d 2 -p cbr -e 1000 -c 3 -i 58 -a 3 -x {1.0 2.0 -1 ------- null}
+ -t 0.0450526315789473 -s 1 -d 2 -p cbr -e 1000 -c 3 -i 111 -a 3 -x {1.0 2.0 107 ------- null}
r -t 0.045264 -s 1 -d 2 -p cbr -e 1000 -c 3 -i 45 -a 3 -x {1.0 2.0 43 ------- null}
+ -t 0.0454736842105263 -s 1 -d 2 -p cbr -e 1000 -c 3 -i 112 -a 3 -x {1.0 2.0 108 ------- null}
d -t 0.0454736842105263 -s 1 -d 2 -p cbr -e 1000 -c 3 -i 112 -a 3 -x {1.0 2.0 108 ------- null}
- -t 0.045664 -s 1 -d 2 -p cbr -e 1000 -c 3 -i 59 -a 3 -x {1.0 2.0 57 ------- null}
h -t 0.045664 -s 1 -d 2 -p cbr -e 1000 -c 3 -i 59 -a 3 -x {1.0 2.0 -1 ------- null}
+ -t 0.0458947368421052 -s 1 -d 2 -p cbr -e 1000 -c 3 -i 113 -a 3 -x {1.0 2.0 109 ------- null}
r -t 0.046064 -s 1 -d 2 -p cbr -e 1000 -c 3 -i 46 -a 3 -x {1.0 2.0 44 ------- null}
+ -t 0.0463157894736842 -s 1 -d 2 -p cbr -e 1000 -c 3 -i 114 -a 3 -x {1.0 2.0 110 ------- null}
d -t 0.0463157894736842 -s 1 -d 2 -p cbr -e 1000 -c 3 -i 114 -a 3 -x {1.0 2.0 110 ------- null}
- -t 0.046464 -s 1 -d 2 -p cbr -e 1000 -c 3 -i 60 -a 3 -x {1.0 2.0 58 ------- null}
h -t 0.046464 -s 1 -d 2 -p cbr -e 1000 -c 3 -i 60 -a 3 -x {1.0 2.0 -1 ------- null}
+ -t 0.0467368421052631 -s 1 -d 2 -p cbr -e 1000 -c 3 -i 115 -a 3 -x {1.0 2.0 111 ------- null}
r -t 0.046864 -s 1 -d 2 -p cbr -e 1000 -c 3 -i 47 -a 3 -x {1.0 2.0 45 ------- null}
+ -t 0.0471578947368421 -s 1 -d 2 -p cbr -e 1000 -c 3 -i 116 -a 3 -x {1.0 2.0 112 ------- null}
d -t 0.0471578947368421 -s 1 -d 2 -p cbr -e 1000 -c 3 -i 116 -a 3 -x {1.0 2.0 112 ------- null}
- -t 0.047264 -s 1 -d 2 -p cbr -e 1000 -c 3 -i 61 -a 3 -x {1.0 2.0 59 ------- null}
h -t 0.047264 -s 1 -d 2 -p cbr -e 1000 -c 3 -i 61 -a 3 -x {1.0 2.0 -1 ------- null}
+ -t 0.047578947368421 -s 1 -d 2 -p cbr -e 1000 -c 3 -i 117 -a 3 -x {1.0 2.0 113 ------- null}
r -t 0.047664 -s 1 -d 2 -p cbr -e 1000 -c 3 -i 48 -a 3 -x {1.0 2.0 46 ------- null}
+ -t 0.048 -s 1 -d 2 -p cbr -e 1000 -c 3 -i 118 -a 3 -x {1.0 2.0 114 ------- null}
d -t 0.048 -s 1 -d 2 -p cbr -e 1000 -c 3 -i 118 -a 3 -x {1.0 2.0 114 ------- null}
- -t 0.048064 -s 1 -d 2 -p cbr -e 1000 -c 3 -i 62 -a 3 -x {1.0 2.0 60 ------- null}
h -t 0.048064 -s 1 -d 2 -p cbr -e 1000 -c 3 -i 62 -a 3 -x {1.0 2.0 -1 ------- null}
+ -t 0.0484210526315789 -s 1 -d 2 -p cbr -e 1000 -c 3 -i 119 -a 3 -x {1.0 2.0 115 ------- null}
r -t 0.048464 -s 1 -d 2 -p cbr -e 1000 -c 3 -i 49 -a 3 -x {1.0 2.0 47 ------- null}
+ -t 0.0488421052631579 -s 1 -d 2 -p cbr -e 1000 -c 3 -i 120 -a 3 -x {1.0 2.0 116 ------- null}
d -t 0.0488421052631579 -s 1 -d 2 -p cbr -e 1000 -c 3 -i 120 -a 3 -x {1.0 2.0 116 ------- null}
- -t 0.048864 -s 1 -d 2 -p cbr -e 1000 -c 3 -i 63 -a 3 -x {1.0 2.0 61 ------- null}
h -t 0.048864 -s 1 -d 2 -p cbr -e 1000 -c 3 -i 63 -a 3 -x {1.0 2.0 -1 ------- null}
+ -t 0.0492631578947368 -s 1 -d 2 -p cbr -e 1000 -c 3 -i 121 -a 3 -x {1.0 2.0 117 ------- null}
r -t 0.049264 -s 1 -d 2 -p cbr -e 1000 -c 3 -i 50 -a 3 -x {1.0 2.0 48 ------- null}
r -t 0.049296 -s 3 -d 2 -p ack -e 40 -c 2 -i 96 -a 2 -x {3.0 0.0 0 ------- null}
+ -t 0.049296 -s 2 -d 1 -p ack -e 40 -c 2 -i 96 -a 2 -x {3.0 0.0 0 ------- null}
- -t 0.049296 -s 2 -d 1 -p ack -e 40 -c 2 -i 96 -a 2 -x {3.0 0.0 0 ------- null}
h -t 0.049296 -s 2 -d 1 -p ack -e 40 -c 2 -i 96 -a 2 -x {3.0 0.0 -1 ------- null}
r -t 0.049328 -s 5 -d 2 -p ack -e 40 -c 1 -i 97 -a 1 -x {5.0 4.0 0 ------- null}
+ -t 0.049328 -s 2 -d 1 -p ack -e 40 -c 1 -i 97 -a 1 -x {5.0 4.0 0 ------- null}
- -t 0.049328 -s 2 -d 1 -p ack -e 40 -c 1 -i 97 -a 1 -x {5.0 4.0 0 ------- null}
h -t 0.049328 -s 2 -d 1 -p ack -e 40 -c 1 -i 97 -a 1 -x {5.0 4.0 -1 ------- null}
- -t 0.049664 -s 1 -d 2 -p cbr -e 1000 -c 3 -i 64 -a 3 -x {1.0 2.0 62 ------- null}
h -t 0.049664 -s 1 -d 2 -p cbr -e 1000 -c 3 -i 64 -a 3 -x {1.0 2.0 -1 ------- null}
+ -t 0.0496842105263158 -s 1 -d 2 -p cbr -e 1000 -c 3 -i 122 -a 3 -x {1.0 2.0 118 ------- null}