+ 0 0 1 cbr 1000 ------- 1 0.0 3.0 0 0
- 0 0 1 cbr 1000 ------- 1 0.0 3.0 0 0
+ 0.008 0 1 cbr 1000 ------- 1 0.0 3.0 1 1
- 0.008 0 1 cbr 1000 ------- 1 0.0 3.0 1 1
r 0.0108 0 1 cbr 1000 ------- 1 0.0 3.0 0 0
+ 0.0108 1 2 cbr 1000 ------- 1 0.0 3.0 0 0
- 0.0108 1 2 cbr 1000 ------- 1 0.0 3.0 0 0
+ 0.016 0 1 cbr 1000 ------- 1 0.0 3.0 2 2
- 0.016 0 1 cbr 1000 ------- 1 0.0 3.0 2 2
r 0.0188 0 1 cbr 1000 ------- 1 0.0 3.0 1 1
+ 0.0188 1 2 cbr 1000 ------- 1 0.0 3.0 1 1
- 0.0188 1 2 cbr 1000 ------- 1 0.0 3.0 1 1
r 0.0216 1 2 cbr 1000 ------- 1 0.0 3.0 0 0
+ 0.0216 2 3 cbr 1000 ------- 1 0.0 3.0 0 0
- 0.0216 2 3 cbr 1000 ------- 1 0.0 3.0 0 0
+ 0.024 0 1 cbr 1000 ------- 1 0.0 3.0 3 3
- 0.024 0 1 cbr 1000 ------- 1 0.0 3.0 3 3
r 0.0268 0 1 cbr 1000 ------- 1 0.0 3.0 2 2
+ 0.0268 1 2 cbr 1000 ------- 1 0.0 3.0 2 2
- 0.0268 1 2 cbr 1000 ------- 1 0.0 3.0 2 2
r 0.0296 1 2 cbr 1000 ------- 1 0.0 3.0 1 1
+ 0.0296 2 3 cbr 1000 ------- 1 0.0 3.0 1 1
- 0.0296 2 3 cbr 1000 ------- 1 0.0 3.0 1 1
+ 0.032 0 1 cbr 1000 ------- 1 0.0 3.0 4 4
- 0.032 0 1 cbr 1000 ------- 1 0.0 3.0 4 4
r 0.0348 0 1 cbr 1000 ------- 1 0.0 3.0 3 3
+ 0.0348 1 2 cbr 1000 ------- 1 0.0 3.0 3 3
- 0.0348 1 2 cbr 1000 ------- 1 0.0 3.0 3 3
r 0.0356 2 3 cbr 1000 ------- 1 0.0 3.0 0 0
r 0.0376 1 2 cbr 1000 ------- 1 0.0 3.0 2 2
+ 0.0376 2 3 cbr 1000 ------- 1 0.0 3.0 2 2
- 0.0376 2 3 cbr 1000 ------- 1 0.0 3.0 2 2
+ 0.04 0 1 cbr 1000 ------- 1 0.0 3.0 5 5
- 0.04 0 1 cbr 1000 ------- 1 0.0 3.0 5 5
r 0.0428 0 1 cbr 1000 ------- 1 0.0 3.0 4 4
+ 0.0428 1 2 cbr 1000 ------- 1 0.0 3.0 4 4
- 0.0428 1 2 cbr 1000 ------- 1 0.0 3.0 4 4
r 0.0436 2 3 cbr 1000 ------- 1 0.0 3.0 1 1
r 0.0456 1 2 cbr 1000 ------- 1 0.0 3.0 3 3
+ 0.0456 2 3 cbr 1000 ------- 1 0.0 3.0 3 3
- 0.0456 2 3 cbr 1000 ------- 1 0.0 3.0 3 3
+ 0.048 0 1 cbr 1000 ------- 1 0.0 3.0 6 6
- 0.048 0 1 cbr 1000 ------- 1 0.0 3.0 6 6
r 0.0508 0 1 cbr 1000 ------- 1 0.0 3.0 5 5
+ 0.0508 1 2 cbr 1000 ------- 1 0.0 3.0 5 5
- 0.0508 1 2 cbr 1000 ------- 1 0.0 3.0 5 5
r 0.0516 2 3 cbr 1000 ------- 1 0.0 3.0 2 2
r 0.0536 1 2 cbr 1000 ------- 1 0.0 3.0 4 4
+ 0.0536 2 3 cbr 1000 ------- 1 0.0 3.0 4 4
- 0.0536 2 3 cbr 1000 ------- 1 0.0 3.0 4 4
+ 0.056 0 1 cbr 1000 ------- 1 0.0 3.0 7 7
- 0.056 0 1 cbr 1000 ------- 1 0.0 3.0 7 7
r 0.0588 0 1 cbr 1000 ------- 1 0.0 3.0 6 6
+ 0.0588 1 2 cbr 1000 ------- 1 0.0 3.0 6 6
- 0.0588 1 2 cbr 1000 ------- 1 0.0 3.0 6 6
r 0.0596 2 3 cbr 1000 ------- 1 0.0 3.0 3 3
r 0.0616 1 2 cbr 1000 ------- 1 0.0 3.0 5 5
+ 0.0616 2 3 cbr 1000 ------- 1 0.0 3.0 5 5
- 0.0616 2 3 cbr 1000 ------- 1 0.0 3.0 5 5
+ 0.064 0 1 cbr 1000 ------- 1 0.0 3.0 8 8
- 0.064 0 1 cbr 1000 ------- 1 0.0 3.0 8 8
r 0.0668 0 1 cbr 1000 ------- 1 0.0 3.0 7 7
+ 0.0668 1 2 cbr 1000 ------- 1 0.0 3.0 7 7
- 0.0668 1 2 cbr 1000 ------- 1 0.0 3.0 7 7
r 0.0676 2 3 cbr 1000 ------- 1 0.0 3.0 4 4
r 0.0696 1 2 cbr 1000 ------- 1 0.0 3.0 6 6
+ 0.0696 2 3 cbr 1000 ------- 1 0.0 3.0 6 6
- 0.0696 2 3 cbr 1000 ------- 1 0.0 3.0 6 6
+ 0.072 0 1 cbr 1000 ------- 1 0.0 3.0 9 9
- 0.072 0 1 cbr 1000 ------- 1 0.0 3.0 9 9
r 0.0748 0 1 cbr 1000 ------- 1 0.0 3.0 8 8
+ 0.0748 1 2 cbr 1000 ------- 1 0.0 3.0 8 8
- 0.0748 1 2 cbr 1000 ------- 1 0.0 3.0 8 8
r 0.0756 2 3 cbr 1000 ------- 1 0.0 3.0 5 5
r 0.0776 1 2 cbr 1000 ------- 1 0.0 3.0 7 7
+ 0.0776 2 3 cbr 1000 ------- 1 0.0 3.0 7 7
- 0.0776 2 3 cbr 1000 ------- 1 0.0 3.0 7 7
+ 0.08 0 1 cbr 1000 ------- 1 0.0 3.0 10 10
- 0.08 0 1 cbr 1000 ------- 1 0.0 3.0 10 10
r 0.0828 0 1 cbr 1000 ------- 1 0.0 3.0 9 9
+ 0.0828 1 2 cbr 1000 ------- 1 0.0 3.0 9 9
- 0.0828 1 2 cbr 1000 ------- 1 0.0 3.0 9 9
r 0.0836 2 3 cbr 1000 ------- 1 0.0 3.0 6 6
r 0.0856 1 2 cbr 1000 ------- 1 0.0 3.0 8 8
+ 0.0856 2 3 cbr 1000 ------- 1 0.0 3.0 8 8
- 0.0856 2 3 cbr 1000 ------- 1 0.0 3.0 8 8
+ 0.088 0 1 cbr 1000 ------- 1 0.0 3.0 11 11
- 0.088 0 1 cbr 1000 ------- 1 0.0 3.0 11 11
r 0.0908 0 1 cbr 1000 ------- 1 0.0 3.0 10 10
+ 0.0908 1 2 cbr 1000 ------- 1 0.0 3.0 10 10
- 0.0908 1 2 cbr 1000 ------- 1 0.0 3.0 10 10
r 0.0916 2 3 cbr 1000 ------- 1 0.0 3.0 7 7
r 0.0936 1 2 cbr 1000 ------- 1 0.0 3.0 9 9
+ 0.0936 2 3 cbr 1000 ------- 1 0.0 3.0 9 9
- 0.0936 2 3 cbr 1000 ------- 1 0.0 3.0 9 9
+ 0.096 0 1 cbr 1000 ------- 1 0.0 3.0 12 12
- 0.096 0 1 cbr 1000 ------- 1 0.0 3.0 12 12
r 0.0988 0 1 cbr 1000 ------- 1 0.0 3.0 11 11
+ 0.0988 1 2 cbr 1000 ------- 1 0.0 3.0 11 11
- 0.0988 1 2 cbr 1000 ------- 1 0.0 3.0 11 11
r 0.0996 2 3 cbr 1000 ------- 1 0.0 3.0 8 8
+ 0.1 6 1 cbr 1000 ------- 2 6.0 7.0 0 13
- 0.1 6 1 cbr 1000 ------- 2 6.0 7.0 0 13
r 0.1016 1 2 cbr 1000 ------- 1 0.0 3.0 10 10
+ 0.1016 2 3 cbr 1000 ------- 1 0.0 3.0 10 10
- 0.1016 2 3 cbr 1000 ------- 1 0.0 3.0 10 10
+ 0.104 0 1 cbr 1000 ------- 1 0.0 3.0 13 14
- 0.104 0 1 cbr 1000 ------- 1 0.0 3.0 13 14
r 0.1068 0 1 cbr 1000 ------- 1 0.0 3.0 12 12
+ 0.1068 1 2 cbr 1000 ------- 1 0.0 3.0 12 12
- 0.1068 1 2 cbr 1000 ------- 1 0.0 3.0 12 12
r 0.1076 2 3 cbr 1000 ------- 1 0.0 3.0 9 9
+ 0.108 6 1 cbr 1000 ------- 2 6.0 7.0 1 15
- 0.108 6 1 cbr 1000 ------- 2 6.0 7.0 1 15
r 0.1096 1 2 cbr 1000 ------- 1 0.0 3.0 11 11
+ 0.1096 2 3 cbr 1000 ------- 1 0.0 3.0 11 11
- 0.1096 2 3 cbr 1000 ------- 1 0.0 3.0 11 11
r 0.1108 6 1 cbr 1000 ------- 2 6.0 7.0 0 13
+ 0.1108 1 2 cbr 1000 ------- 2 6.0 7.0 0 13
- 0.1108 1 2 cbr 1000 ------- 2 6.0 7.0 0 13
+ 0.112 0 1 cbr 1000 ------- 1 0.0 3.0 14 16
- 0.112 0 1 cbr 1000 ------- 1 0.0 3.0 14 16
r 0.1148 0 1 cbr 1000 ------- 1 0.0 3.0 13 14
+ 0.1148 1 2 cbr 1000 ------- 1 0.0 3.0 13 14
- 0.1148 1 2 cbr 1000 ------- 1 0.0 3.0 13 14
r 0.1156 2 3 cbr 1000 ------- 1 0.0 3.0 10 10
+ 0.116 6 1 cbr 1000 ------- 2 6.0 7.0 2 17
- 0.116 6 1 cbr 1000 ------- 2 6.0 7.0 2 17
r 0.1176 1 2 cbr 1000 ------- 1 0.0 3.0 12 12
+ 0.1176 2 3 cbr 1000 ------- 1 0.0 3.0 12 12
- 0.1176 2 3 cbr 1000 ------- 1 0.0 3.0 12 12
r 0.1188 6 1 cbr 1000 ------- 2 6.0 7.0 1 15
+ 0.1188 1 2 cbr 1000 ------- 2 6.0 7.0 1 15
- 0.1188 1 2 cbr 1000 ------- 2 6.0 7.0 1 15
+ 0.12 0 1 cbr 1000 ------- 1 0.0 3.0 15 18
- 0.12 0 1 cbr 1000 ------- 1 0.0 3.0 15 18
r 0.1216 1 2 cbr 1000 ------- 2 6.0 7.0 0 13
+ 0.1216 2 7 cbr 1000 ------- 2 6.0 7.0 0 13
- 0.1216 2 7 cbr 1000 ------- 2 6.0 7.0 0 13
r 0.1228 0 1 cbr 1000 ------- 1 0.0 3.0 14 16
+ 0.1228 1 2 cbr 1000 ------- 1 0.0 3.0 14 16
- 0.1228 1 2 cbr 1000 ------- 1 0.0 3.0 14 16
r 0.1236 2 3 cbr 1000 ------- 1 0.0 3.0 11 11
+ 0.124 6 1 cbr 1000 ------- 2 6.0 7.0 3 19
- 0.124 6 1 cbr 1000 ------- 2 6.0 7.0 3 19
r 0.1256 1 2 cbr 1000 ------- 1 0.0 3.0 13 14
+ 0.1256 2 3 cbr 1000 ------- 1 0.0 3.0 13 14
- 0.1256 2 3 cbr 1000 ------- 1 0.0 3.0 13 14
r 0.1268 6 1 cbr 1000 ------- 2 6.0 7.0 2 17
+ 0.1268 1 2 cbr 1000 ------- 2 6.0 7.0 2 17
- 0.1268 1 2 cbr 1000 ------- 2 6.0 7.0 2 17
+ 0.128 0 1 cbr 1000 ------- 1 0.0 3.0 16 20
- 0.128 0 1 cbr 1000 ------- 1 0.0 3.0 16 20
r 0.1296 1 2 cbr 1000 ------- 2 6.0 7.0 1 15
+ 0.1296 2 7 cbr 1000 ------- 2 6.0 7.0 1 15
- 0.1296 2 7 cbr 1000 ------- 2 6.0 7.0 1 15
r 0.1308 0 1 cbr 1000 ------- 1 0.0 3.0 15 18
+ 0.1308 1 2 cbr 1000 ------- 1 0.0 3.0 15 18
- 0.1308 1 2 cbr 1000 ------- 1 0.0 3.0 15 18
r 0.1316 2 3 cbr 1000 ------- 1 0.0 3.0 12 12
+ 0.132 6 1 cbr 1000 ------- 2 6.0 7.0 4 21
- 0.132 6 1 cbr 1000 ------- 2 6.0 7.0 4 21
r 0.1324 2 7 cbr 1000 ------- 2 6.0 7.0 0 13
r 0.1336 1 2 cbr 1000 ------- 1 0.0 3.0 14 16
+ 0.1336 2 3 cbr 1000 ------- 1 0.0 3.0 14 16
- 0.1336 2 3 cbr 1000 ------- 1 0.0 3.0 14 16
r 0.1348 6 1 cbr 1000 ------- 2 6.0 7.0 3 19
+ 0.1348 1 2 cbr 1000 ------- 2 6.0 7.0 3 19
- 0.1348 1 2 cbr 1000 ------- 2 6.0 7.0 3 19
+ 0.136 0 1 cbr 1000 ------- 1 0.0 3.0 17 22
- 0.136 0 1 cbr 1000 ------- 1 0.0 3.0 17 22
r 0.1376 1 2 cbr 1000 ------- 2 6.0 7.0 2 17
+ 0.1376 2 7 cbr 1000 ------- 2 6.0 7.0 2 17
- 0.1376 2 7 cbr 1000 ------- 2 6.0 7.0 2 17
r 0.1388 0 1 cbr 1000 ------- 1 0.0 3.0 16 20
+ 0.1388 1 2 cbr 1000 ------- 1 0.0 3.0 16 20
- 0.1388 1 2 cbr 1000 ------- 1 0.0 3.0 16 20
r 0.1396 2 3 cbr 1000 ------- 1 0.0 3.0 13 14
+ 0.14 6 1 cbr 1000 ------- 2 6.0 7.0 5 23
- 0.14 6 1 cbr 1000 ------- 2 6.0 7.0 5 23
r 0.1404 2 7 cbr 1000 ------- 2 6.0 7.0 1 15
r 0.1416 1 2 cbr 1000 ------- 1 0.0 3.0 15 18
+ 0.1416 2 3 cbr 1000 ------- 1 0.0 3.0 15 18
- 0.1416 2 3 cbr 1000 ------- 1 0.0 3.0 15 18
r 0.1428 6 1 cbr 1000 ------- 2 6.0 7.0 4 21
+ 0.1428 1 2 cbr 1000 ------- 2 6.0 7.0 4 21
- 0.1428 1 2 cbr 1000 ------- 2 6.0 7.0 4 21
+ 0.144 0 1 cbr 1000 ------- 1 0.0 3.0 18 24
- 0.144 0 1 cbr 1000 ------- 1 0.0 3.0 18 24
r 0.1456 1 2 cbr 1000 ------- 2 6.0 7.0 3 19
+ 0.1456 2 7 cbr 1000 ------- 2 6.0 7.0 3 19
- 0.1456 2 7 cbr 1000 ------- 2 6.0 7.0 3 19
r 0.1468 0 1 cbr 1000 ------- 1 0.0 3.0 17 22
+ 0.1468 1 2 cbr 1000 ------- 1 0.0 3.0 17 22
- 0.1468 1 2 cbr 1000 ------- 1 0.0 3.0 17 22
r 0.1476 2 3 cbr 1000 ------- 1 0.0 3.0 14 16
+ 0.148 6 1 cbr 1000 ------- 2 6.0 7.0 6 25
- 0.148 6 1 cbr 1000 ------- 2 6.0 7.0 6 25
r 0.1484 2 7 cbr 1000 ------- 2 6.0 7.0 2 17
r 0.1496 1 2 cbr 1000 ------- 1 0.0 3.0 16 20
+ 0.1496 2 3 cbr 1000 ------- 1 0.0 3.0 16 20
- 0.1496 2 3 cbr 1000 ------- 1 0.0 3.0 16 20
r 0.1508 6 1 cbr 1000 ------- 2 6.0 7.0 5 23
+ 0.1508 1 2 cbr 1000 ------- 2 6.0 7.0 5 23
- 0.1508 1 2 cbr 1000 ------- 2 6.0 7.0 5 23
+ 0.152 0 1 cbr 1000 ------- 1 0.0 3.0 19 26
- 0.152 0 1 cbr 1000 ------- 1 0.0 3.0 19 26
r 0.1536 1 2 cbr 1000 ------- 2 6.0 7.0 4 21
+ 0.1536 2 7 cbr 1000 ------- 2 6.0 7.0 4 21
- 0.1536 2 7 cbr 1000 ------- 2 6.0 7.0 4 21
r 0.1548 0 1 cbr 1000 ------- 1 0.0 3.0 18 24
+ 0.1548 1 2 cbr 1000 ------- 1 0.0 3.0 18 24
- 0.1548 1 2 cbr 1000 ------- 1 0.0 3.0 18 24
r 0.1556 2 3 cbr 1000 ------- 1 0.0 3.0 15 18
+ 0.156 6 1 cbr 1000 ------- 2 6.0 7.0 7 27
- 0.156 6 1 cbr 1000 ------- 2 6.0 7.0 7 27
r 0.1564 2 7 cbr 1000 ------- 2 6.0 7.0 3 19
r 0.1576 1 2 cbr 1000 ------- 1 0.0 3.0 17 22
+ 0.1576 2 3 cbr 1000 ------- 1 0.0 3.0 17 22
- 0.1576 2 3 cbr 1000 ------- 1 0.0 3.0 17 22
r 0.1588 6 1 cbr 1000 ------- 2 6.0 7.0 6 25
+ 0.1588 1 2 cbr 1000 ------- 2 6.0 7.0 6 25
- 0.1588 1 2 cbr 1000 ------- 2 6.0 7.0 6 25
+ 0.16 0 1 cbr 1000 ------- 1 0.0 3.0 20 28
- 0.16 0 1 cbr 1000 ------- 1 0.0 3.0 20 28
r 0.1616 1 2 cbr 1000 ------- 2 6.0 7.0 5 23
+ 0.1616 2 7 cbr 1000 ------- 2 6.0 7.0 5 23
- 0.1616 2 7 cbr 1000 ------- 2 6.0 7.0 5 23
r 0.1628 0 1 cbr 1000 ------- 1 0.0 3.0 19 26
+ 0.1628 1 2 cbr 1000 ------- 1 0.0 3.0 19 26
- 0.1628 1 2 cbr 1000 ------- 1 0.0 3.0 19 26
r 0.1636 2 3 cbr 1000 ------- 1 0.0 3.0 16 20
+ 0.164 6 1 cbr 1000 ------- 2 6.0 7.0 8 29
- 0.164 6 1 cbr 1000 ------- 2 6.0 7.0 8 29
r 0.1644 2 7 cbr 1000 ------- 2 6.0 7.0 4 21
r 0.1656 1 2 cbr 1000 ------- 1 0.0 3.0 18 24
+ 0.1656 2 3 cbr 1000 ------- 1 0.0 3.0 18 24
- 0.1656 2 3 cbr 1000 ------- 1 0.0 3.0 18 24
r 0.1668 6 1 cbr 1000 ------- 2 6.0 7.0 7 27
+ 0.1668 1 2 cbr 1000 ------- 2 6.0 7.0 7 27
- 0.1668 1 2 cbr 1000 ------- 2 6.0 7.0 7 27
+ 0.168 0 1 cbr 1000 ------- 1 0.0 3.0 21 30
- 0.168 0 1 cbr 1000 ------- 1 0.0 3.0 21 30
r 0.1696 1 2 cbr 1000 ------- 2 6.0 7.0 6 25
+ 0.1696 2 7 cbr 1000 ------- 2 6.0 7.0 6 25
- 0.1696 2 7 cbr 1000 ------- 2 6.0 7.0 6 25
r 0.1708 0 1 cbr 1000 ------- 1 0.0 3.0 20 28
+ 0.1708 1 2 cbr 1000 ------- 1 0.0 3.0 20 28
- 0.1708 1 2 cbr 1000 ------- 1 0.0 3.0 20 28
r 0.1716 2 3 cbr 1000 ------- 1 0.0 3.0 17 22
+ 0.172 6 1 cbr 1000 ------- 2 6.0 7.0 9 31
- 0.172 6 1 cbr 1000 ------- 2 6.0 7.0 9 31
r 0.1724 2 7 cbr 1000 ------- 2 6.0 7.0 5 23
r 0.1736 1 2 cbr 1000 ------- 1 0.0 3.0 19 26
+ 0.1736 2 3 cbr 1000 ------- 1 0.0 3.0 19 26
- 0.1736 2 3 cbr 1000 ------- 1 0.0 3.0 19 26
r 0.1748 6 1 cbr 1000 ------- 2 6.0 7.0 8 29
+ 0.1748 1 2 cbr 1000 ------- 2 6.0 7.0 8 29
- 0.1748 1 2 cbr 1000 ------- 2 6.0 7.0 8 29
+ 0.176 0 1 cbr 1000 ------- 1 0.0 3.0 22 32
- 0.176 0 1 cbr 1000 ------- 1 0.0 3.0 22 32
r 0.1776 1 2 cbr 1000 ------- 2 6.0 7.0 7 27
+ 0.1776 2 7 cbr 1000 ------- 2 6.0 7.0 7 27
- 0.1776 2 7 cbr 1000 ------- 2 6.0 7.0 7 27
r 0.1788 0 1 cbr 1000 ------- 1 0.0 3.0 21 30
+ 0.1788 1 2 cbr 1000 ------- 1 0.0 3.0 21 30
- 0.1788 1 2 cbr 1000 ------- 1 0.0 3.0 21 30
r 0.1796 2 3 cbr 1000 ------- 1 0.0 3.0 18 24
+ 0.18 6 1 cbr 1000 ------- 2 6.0 7.0 10 33
- 0.18 6 1 cbr 1000 ------- 2 6.0 7.0 10 33
r 0.1804 2 7 cbr 1000 ------- 2 6.0 7.0 6 25
r 0.1816 1 2 cbr 1000 ------- 1 0.0 3.0 20 28
+ 0.1816 2 3 cbr 1000 ------- 1 0.0 3.0 20 28
- 0.1816 2 3 cbr 1000 ------- 1 0.0 3.0 20 28
r 0.1828 6 1 cbr 1000 ------- 2 6.0 7.0 9 31
+ 0.1828 1 2 cbr 1000 ------- 2 6.0 7.0 9 31
- 0.1828 1 2 cbr 1000 ------- 2 6.0 7.0 9 31
+ 0.184 0 1 cbr 1000 ------- 1 0.0 3.0 23 34
- 0.184 0 1 cbr 1000 ------- 1 0.0 3.0 23 34
r 0.1856 1 2 cbr 1000 ------- 2 6.0 7.0 8 29
+ 0.1856 2 7 cbr 1000 ------- 2 6.0 7.0 8 29
- 0.1856 2 7 cbr 1000 ------- 2 6.0 7.0 8 29
r 0.1868 0 1 cbr 1000 ------- 1 0.0 3.0 22 32
+ 0.1868 1 2 cbr 1000 ------- 1 0.0 3.0 22 32
- 0.1868 1 2 cbr 1000 ------- 1 0.0 3.0 22 32
r 0.1876 2 3 cbr 1000 ------- 1 0.0 3.0 19 26
+ 0.188 6 1 cbr 1000 ------- 2 6.0 7.0 11 35
- 0.188 6 1 cbr 1000 ------- 2 6.0 7.0 11 35
r 0.1884 2 7 cbr 1000 ------- 2 6.0 7.0 7 27
r 0.1896 1 2 cbr 1000 ------- 1 0.0 3.0 21 30
+ 0.1896 2 3 cbr 1000 ------- 1 0.0 3.0 21 30
- 0.1896 2 3 cbr 1000 ------- 1 0.0 3.0 21 30
r 0.1908 6 1 cbr 1000 ------- 2 6.0 7.0 10 33
+ 0.1908 1 2 cbr 1000 ------- 2 6.0 7.0 10 33
- 0.1908 1 2 cbr 1000 ------- 2 6.0 7.0 10 33
+ 0.192 0 1 cbr 1000 ------- 1 0.0 3.0 24 36
- 0.192 0 1 cbr 1000 ------- 1 0.0 3.0 24 36
r 0.1936 1 2 cbr 1000 ------- 2 6.0 7.0 9 31
+ 0.1936 2 7 cbr 1000 ------- 2 6.0 7.0 9 31
- 0.1936 2 7 cbr 1000 ------- 2 6.0 7.0 9 31
r 0.1948 0 1 cbr 1000 ------- 1 0.0 3.0 23 34
+ 0.1948 1 2 cbr 1000 ------- 1 0.0 3.0 23 34
- 0.1948 1 2 cbr 1000 ------- 1 0.0 3.0 23 34
r 0.1956 2 3 cbr 1000 ------- 1 0.0 3.0 20 28
+ 0.196 6 1 cbr 1000 ------- 2 6.0 7.0 12 37
- 0.196 6 1 cbr 1000 ------- 2 6.0 7.0 12 37
r 0.1964 2 7 cbr 1000 ------- 2 6.0 7.0 8 29
r 0.1976 1 2 cbr 1000 ------- 1 0.0 3.0 22 32
+ 0.1976 2 3 cbr 1000 ------- 1 0.0 3.0 22 32
- 0.1976 2 3 cbr 1000 ------- 1 0.0 3.0 22 32
r 0.1988 6 1 cbr 1000 ------- 2 6.0 7.0 11 35
+ 0.1988 1 2 cbr 1000 ------- 2 6.0 7.0 11 35
- 0.1988 1 2 cbr 1000 ------- 2 6.0 7.0 11 35
+ 0.2 0 1 cbr 1000 ------- 1 0.0 3.0 25 38
- 0.2 0 1 cbr 1000 ------- 1 0.0 3.0 25 38
r 0.2016 1 2 cbr 1000 ------- 2 6.0 7.0 10 33
+ 0.2016 2 7 cbr 1000 ------- 2 6.0 7.0 10 33
- 0.2016 2 7 cbr 1000 ------- 2 6.0 7.0 10 33
r 0.2028 0 1 cbr 1000 ------- 1 0.0 3.0 24 36
+ 0.2028 1 2 cbr 1000 ------- 1 0.0 3.0 24 36
- 0.2028 1 2 cbr 1000 ------- 1 0.0 3.0 24 36
r 0.2036 2 3 cbr 1000 ------- 1 0.0 3.0 21 30
+ 0.204 6 1 cbr 1000 ------- 2 6.0 7.0 13 39
- 0.204 6 1 cbr 1000 ------- 2 6.0 7.0 13 39
r 0.2044 2 7 cbr 1000 ------- 2 6.0 7.0 9 31
r 0.2056 1 2 cbr 1000 ------- 1 0.0 3.0 23 34
+ 0.2056 2 3 cbr 1000 ------- 1 0.0 3.0 23 34
- 0.2056 2 3 cbr 1000 ------- 1 0.0 3.0 23 34
r 0.2068 6 1 cbr 1000 ------- 2 6.0 7.0 12 37
+ 0.2068 1 2 cbr 1000 ------- 2 6.0 7.0 12 37
- 0.2068 1 2 cbr 1000 ------- 2 6.0 7.0 12 37
+ 0.208 0 1 cbr 1000 ------- 1 0.0 3.0 26 40
- 0.208 0 1 cbr 1000 ------- 1 0.0 3.0 26 40
r 0.2096 1 2 cbr 1000 ------- 2 6.0 7.0 11 35
+ 0.2096 2 7 cbr 1000 ------- 2 6.0 7.0 11 35
- 0.2096 2 7 cbr 1000 ------- 2 6.0 7.0 11 35
r 0.2108 0 1 cbr 1000 ------- 1 0.0 3.0 25 38
+ 0.2108 1 2 cbr 1000 ------- 1 0.0 3.0 25 38
- 0.2108 1 2 cbr 1000 ------- 1 0.0 3.0 25 38
r 0.2116 2 3 cbr 1000 ------- 1 0.0 3.0 22 32
+ 0.212 6 1 cbr 1000 ------- 2 6.0 7.0 14 41
- 0.212 6 1 cbr 1000 ------- 2 6.0 7.0 14 41
r 0.2124 2 7 cbr 1000 ------- 2 6.0 7.0 10 33
r 0.2136 1 2 cbr 1000 ------- 1 0.0 3.0 24 36
+ 0.2136 2 3 cbr 1000 ------- 1 0.0 3.0 24 36
- 0.2136 2 3 cbr 1000 ------- 1 0.0 3.0 24 36
r 0.2148 6 1 cbr 1000 ------- 2 6.0 7.0 13 39
+ 0.2148 1 2 cbr 1000 ------- 2 6.0 7.0 13 39
- 0.2148 1 2 cbr 1000 ------- 2 6.0 7.0 13 39
+ 0.216 0 1 cbr 1000 ------- 1 0.0 3.0 27 42
- 0.216 0 1 cbr 1000 ------- 1 0.0 3.0 27 42
r 0.2176 1 2 cbr 1000 ------- 2 6.0 7.0 12 37
+ 0.2176 2 7 cbr 1000 ------- 2 6.0 7.0 12 37
- 0.2176 2 7 cbr 1000 ------- 2 6.0 7.0 12 37
r 0.2188 0 1 cbr 1000 ------- 1 0.0 3.0 26 40
+ 0.2188 1 2 cbr 1000 ------- 1 0.0 3.0 26 40
- 0.2188 1 2 cbr 1000 ------- 1 0.0 3.0 26 40
r 0.2196 2 3 cbr 1000 ------- 1 0.0 3.0 23 34
+ 0.22 6 1 cbr 1000 ------- 2 6.0 7.0 15 43
- 0.22 6 1 cbr 1000 ------- 2 6.0 7.0 15 43
r 0.2204 2 7 cbr 1000 ------- 2 6.0 7.0 11 35
r 0.2216 1 2 cbr 1000 ------- 1 0.0 3.0 25 38
+ 0.2216 2 3 cbr 1000 ------- 1 0.0 3.0 25 38
- 0.2216 2 3 cbr 1000 ------- 1 0.0 3.0 25 38
r 0.2228 6 1 cbr 1000 ------- 2 6.0 7.0 14 41
+ 0.2228 1 2 cbr 1000 ------- 2 6.0 7.0 14 41
- 0.2228 1 2 cbr 1000 ------- 2 6.0 7.0 14 41
+ 0.224 0 1 cbr 1000 ------- 1 0.0 3.0 28 44
- 0.224 0 1 cbr 1000 ------- 1 0.0 3.0 28 44
r 0.2256 1 2 cbr 1000 ------- 2 6.0 7.0 13 39
+ 0.2256 2 7 cbr 1000 ------- 2 6.0 7.0 13 39
- 0.2256 2 7 cbr 1000 ------- 2 6.0 7.0 13 39
r 0.2268 0 1 cbr 1000 ------- 1 0.0 3.0 27 42
+ 0.2268 1 2 cbr 1000 ------- 1 0.0 3.0 27 42
- 0.2268 1 2 cbr 1000 ------- 1 0.0 3.0 27 42
r 0.2276 2 3 cbr 1000 ------- 1 0.0 3.0 24 36
+ 0.228 6 1 cbr 1000 ------- 2 6.0 7.0 16 45
- 0.228 6 1 cbr 1000 ------- 2 6.0 7.0 16 45
r 0.2284 2 7 cbr 1000 ------- 2 6.0 7.0 12 37
r 0.2296 1 2 cbr 1000 ------- 1 0.0 3.0 26 40
+ 0.2296 2 3 cbr 1000 ------- 1 0.0 3.0 26 40
- 0.2296 2 3 cbr 1000 ------- 1 0.0 3.0 26 40
r 0.2308 6 1 cbr 1000 ------- 2 6.0 7.0 15 43
+ 0.2308 1 2 cbr 1000 ------- 2 6.0 7.0 15 43
- 0.2308 1 2 cbr 1000 ------- 2 6.0 7.0 15 43
+ 0.232 0 1 cbr 1000 ------- 1 0.0 3.0 29 46
- 0.232 0 1 cbr 1000 ------- 1 0.0 3.0 29 46
r 0.2336 1 2 cbr 1000 ------- 2 6.0 7.0 14 41
+ 0.2336 2 7 cbr 1000 ------- 2 6.0 7.0 14 41
- 0.2336 2 7 cbr 1000 ------- 2 6.0 7.0 14 41
r 0.2348 0 1 cbr 1000 ------- 1 0.0 3.0 28 44
+ 0.2348 1 2 cbr 1000 ------- 1 0.0 3.0 28 44
- 0.2348 1 2 cbr 1000 ------- 1 0.0 3.0 28 44
r 0.2356 2 3 cbr 1000 ------- 1 0.0 3.0 25 38
+ 0.236 6 1 cbr 1000 ------- 2 6.0 7.0 17 47
- 0.236 6 1 cbr 1000 ------- 2 6.0 7.0 17 47
r 0.2364 2 7 cbr 1000 ------- 2 6.0 7.0 13 39
r 0.2376 1 2 cbr 1000 ------- 1 0.0 3.0 27 42
+ 0.2376 2 3 cbr 1000 ------- 1 0.0 3.0 27 42
- 0.2376 2 3 cbr 1000 ------- 1 0.0 3.0 27 42
r 0.2388 6 1 cbr 1000 ------- 2 6.0 7.0 16 45
+ 0.2388 1 2 cbr 1000 ------- 2 6.0 7.0 16 45
- 0.2388 1 2 cbr 1000 ------- 2 6.0 7.0 16 45
+ 0.24 0 1 cbr 1000 ------- 1 0.0 3.0 30 48
- 0.24 0 1 cbr 1000 ------- 1 0.0 3.0 30 48
r 0.2416 1 2 cbr 1000 ------- 2 6.0 7.0 15 43
+ 0.2416 2 7 cbr 1000 ------- 2 6.0 7.0 15 43
- 0.2416 2 7 cbr 1000 ------- 2 6.0 7.0 15 43
r 0.2428 0 1 cbr 1000 ------- 1 0.0 3.0 29 46
+ 0.2428 1 2 cbr 1000 ------- 1 0.0 3.0 29 46
- 0.2428 1 2 cbr 1000 ------- 1 0.0 3.0 29 46
r 0.2436 2 3 cbr 1000 ------- 1 0.0 3.0 26 40
+ 0.244 6 1 cbr 1000 ------- 2 6.0 7.0 18 49
- 0.244 6 1 cbr 1000 ------- 2 6.0 7.0 18 49
r 0.2444 2 7 cbr 1000 ------- 2 6.0 7.0 14 41
r 0.2456 1 2 cbr 1000 ------- 1 0.0 3.0 28 44
+ 0.2456 2 3 cbr 1000 ------- 1 0.0 3.0 28 44
- 0.2456 2 3 cbr 1000 ------- 1 0.0 3.0 28 44
r 0.2468 6 1 cbr 1000 ------- 2 6.0 7.0 17 47
+ 0.2468 1 2 cbr 1000 ------- 2 6.0 7.0 17 47
- 0.2468 1 2 cbr 1000 ------- 2 6.0 7.0 17 47
+ 0.248 0 1 cbr 1000 ------- 1 0.0 3.0 31 50
- 0.248 0 1 cbr 1000 ------- 1 0.0 3.0 31 50
r 0.2496 1 2 cbr 1000 ------- 2 6.0 7.0 16 45
+ 0.2496 2 7 cbr 1000 ------- 2 6.0 7.0 16 45
- 0.2496 2 7 cbr 1000 ------- 2 6.0 7.0 16 45
r 0.2508 0 1 cbr 1000 ------- 1 0.0 3.0 30 48
+ 0.2508 1 2 cbr 1000 ------- 1 0.0 3.0 30 48
- 0.2508 1 2 cbr 1000 ------- 1 0.0 3.0 30 48
r 0.2516 2 3 cbr 1000 ------- 1 0.0 3.0 27 42
+ 0.252 6 1 cbr 1000 ------- 2 6.0 7.0 19 51
- 0.252 6 1 cbr 1000 ------- 2 6.0 7.0 19 51
r 0.2524 2 7 cbr 1000 ------- 2 6.0 7.0 15 43
r 0.2536 1 2 cbr 1000 ------- 1 0.0 3.0 29 46
+ 0.2536 2 3 cbr 1000 ------- 1 0.0 3.0 29 46
- 0.2536 2 3 cbr 1000 ------- 1 0.0 3.0 29 46
r 0.2548 6 1 cbr 1000 ------- 2 6.0 7.0 18 49
+ 0.2548 1 2 cbr 1000 ------- 2 6.0 7.0 18 49
- 0.2548 1 2 cbr 1000 ------- 2 6.0 7.0 18 49
+ 0.256 0 1 cbr 1000 ------- 1 0.0 3.0 32 52
- 0.256 0 1 cbr 1000 ------- 1 0.0 3.0 32 52
r 0.2576 1 2 cbr 1000 ------- 2 6.0 7.0 17 47
+ 0.2576 2 7 cbr 1000 ------- 2 6.0 7.0 17 47
- 0.2576 2 7 cbr 1000 ------- 2 6.0 7.0 17 47
r 0.2588 0 1 cbr 1000 ------- 1 0.0 3.0 31 50
+ 0.2588 1 2 cbr 1000 ------- 1 0.0 3.0 31 50
- 0.2588 1 2 cbr 1000 ------- 1 0.0 3.0 31 50
r 0.2596 2 3 cbr 1000 ------- 1 0.0 3.0 28 44
+ 0.26 6 1 cbr 1000 ------- 2 6.0 7.0 20 53
- 0.26 6 1 cbr 1000 ------- 2 6.0 7.0 20 53
r 0.2604 2 7 cbr 1000 ------- 2 6.0 7.0 16 45
r 0.2616 1 2 cbr 1000 ------- 1 0.0 3.0 30 48
+ 0.2616 2 3 cbr 1000 ------- 1 0.0 3.0 30 48
- 0.2616 2 3 cbr 1000 ------- 1 0.0 3.0 30 48
r 0.2628 6 1 cbr 1000 ------- 2 6.0 7.0 19 51
+ 0.2628 1 2 cbr 1000 ------- 2 6.0 7.0 19 51
- 0.2628 1 2 cbr 1000 ------- 2 6.0 7.0 19 51
+ 0.264 0 1 cbr 1000 ------- 1 0.0 3.0 33 54
- 0.264 0 1 cbr 1000 ------- 1 0.0 3.0 33 54
r 0.2656 1 2 cbr 1000 ------- 2 6.0 7.0 18 49
+ 0.2656 2 7 cbr 1000 ------- 2 6.0 7.0 18 49
- 0.2656 2 7 cbr 1000 ------- 2 6.0 7.0 18 49
r 0.2668 0 1 cbr 1000 ------- 1 0.0 3.0 32 52
+ 0.2668 1 2 cbr 1000 ------- 1 0.0 3.0 32 52
- 0.2668 1 2 cbr 1000 ------- 1 0.0 3.0 32 52
r 0.2676 2 3 cbr 1000 ------- 1 0.0 3.0 29 46
+ 0.268 6 1 cbr 1000 ------- 2 6.0 7.0 21 55
- 0.268 6 1 cbr 1000 ------- 2 6.0 7.0 21 55
r 0.2684 2 7 cbr 1000 ------- 2 6.0 7.0 17 47
r 0.2696 1 2 cbr 1000 ------- 1 0.0 3.0 31 50
+ 0.2696 2 3 cbr 1000 ------- 1 0.0 3.0 31 50
- 0.2696 2 3 cbr 1000 ------- 1 0.0 3.0 31 50
r 0.2708 6 1 cbr 1000 ------- 2 6.0 7.0 20 53
+ 0.2708 1 2 cbr 1000 ------- 2 6.0 7.0 20 53
- 0.2708 1 2 cbr 1000 ------- 2 6.0 7.0 20 53
+ 0.272 0 1 cbr 1000 ------- 1 0.0 3.0 34 56
- 0.272 0 1 cbr 1000 ------- 1 0.0 3.0 34 56
r 0.2736 1 2 cbr 1000 ------- 2 6.0 7.0 19 51
+ 0.2736 2 7 cbr 1000 ------- 2 6.0 7.0 19 51
- 0.2736 2 7 cbr 1000 ------- 2 6.0 7.0 19 51
r 0.2748 0 1 cbr 1000 ------- 1 0.0 3.0 33 54
+ 0.2748 1 2 cbr 1000 ------- 1 0.0 3.0 33 54
- 0.2748 1 2 cbr 1000 ------- 1 0.0 3.0 33 54
r 0.2756 2 3 cbr 1000 ------- 1 0.0 3.0 30 48
+ 0.276 6 1 cbr 1000 ------- 2 6.0 7.0 22 57
- 0.276 6 1 cbr 1000 ------- 2 6.0 7.0 22 57
r 0.2764 2 7 cbr 1000 ------- 2 6.0 7.0 18 49
r 0.2776 1 2 cbr 1000 ------- 1 0.0 3.0 32 52
+ 0.2776 2 3 cbr 1000 ------- 1 0.0 3.0 32 52
- 0.2776 2 3 cbr 1000 ------- 1 0.0 3.0 32 52
r 0.2788 6 1 cbr 1000 ------- 2 6.0 7.0 21 55
+ 0.2788 1 2 cbr 1000 ------- 2 6.0 7.0 21 55
- 0.2788 1 2 cbr 1000 ------- 2 6.0 7.0 21 55
+ 0.28 0 1 cbr 1000 ------- 1 0.0 3.0 35 58
- 0.28 0 1 cbr 1000 ------- 1 0.0 3.0 35 58
r 0.2816 1 2 cbr 1000 ------- 2 6.0 7.0 20 53
+ 0.2816 2 7 cbr 1000 ------- 2 6.0 7.0 20 53
- 0.2816 2 7 cbr 1000 ------- 2 6.0 7.0 20 53
r 0.2828 0 1 cbr 1000 ------- 1 0.0 3.0 34 56
+ 0.2828 1 2 cbr 1000 ------- 1 0.0 3.0 34 56
- 0.2828 1 2 cbr 1000 ------- 1 0.0 3.0 34 56
r 0.2836 2 3 cbr 1000 ------- 1 0.0 3.0 31 50
+ 0.284 6 1 cbr 1000 ------- 2 6.0 7.0 23 59
- 0.284 6 1 cbr 1000 ------- 2 6.0 7.0 23 59
r 0.2844 2 7 cbr 1000 ------- 2 6.0 7.0 19 51
r 0.2856 1 2 cbr 1000 ------- 1 0.0 3.0 33 54
+ 0.2856 2 3 cbr 1000 ------- 1 0.0 3.0 33 54
- 0.2856 2 3 cbr 1000 ------- 1 0.0 3.0 33 54
r 0.2868 6 1 cbr 1000 ------- 2 6.0 7.0 22 57
+ 0.2868 1 2 cbr 1000 ------- 2 6.0 7.0 22 57
- 0.2868 1 2 cbr 1000 ------- 2 6.0 7.0 22 57
+ 0.288 0 1 cbr 1000 ------- 1 0.0 3.0 36 60
- 0.288 0 1 cbr 1000 ------- 1 0.0 3.0 36 60
r 0.2896 1 2 cbr 1000 ------- 2 6.0 7.0 21 55
+ 0.2896 2 7 cbr 1000 ------- 2 6.0 7.0 21 55
- 0.2896 2 7 cbr 1000 ------- 2 6.0 7.0 21 55
r 0.2908 0 1 cbr 1000 ------- 1 0.0 3.0 35 58
+ 0.2908 1 2 cbr 1000 ------- 1 0.0 3.0 35 58
- 0.2908 1 2 cbr 1000 ------- 1 0.0 3.0 35 58
r 0.2916 2 3 cbr 1000 ------- 1 0.0 3.0 32 52
+ 0.292 6 1 cbr 1000 ------- 2 6.0 7.0 24 61
- 0.292 6 1 cbr 1000 ------- 2 6.0 7.0 24 61
r 0.2924 2 7 cbr 1000 ------- 2 6.0 7.0 20 53
r 0.2936 1 2 cbr 1000 ------- 1 0.0 3.0 34 56
+ 0.2936 2 3 cbr 1000 ------- 1 0.0 3.0 34 56
- 0.2936 2 3 cbr 1000 ------- 1 0.0 3.0 34 56
r 0.2948 6 1 cbr 1000 ------- 2 6.0 7.0 23 59
+ 0.2948 1 2 cbr 1000 ------- 2 6.0 7.0 23 59
- 0.2948 1 2 cbr 1000 ------- 2 6.0 7.0 23 59
+ 0.296 0 1 cbr 1000 ------- 1 0.0 3.0 37 62
- 0.296 0 1 cbr 1000 ------- 1 0.0 3.0 37 62
r 0.2976 1 2 cbr 1000 ------- 2 6.0 7.0 22 57
+ 0.2976 2 7 cbr 1000 ------- 2 6.0 7.0 22 57
- 0.2976 2 7 cbr 1000 ------- 2 6.0 7.0 22 57
r 0.2988 0 1 cbr 1000 ------- 1 0.0 3.0 36 60
+ 0.2988 1 2 cbr 1000 ------- 1 0.0 3.0 36 60
- 0.2988 1 2 cbr 1000 ------- 1 0.0 3.0 36 60
r 0.2996 2 3 cbr 1000 ------- 1 0.0 3.0 33 54
+ 0.3 6 1 cbr 1000 ------- 2 6.0 7.0 25 63
- 0.3 6 1 cbr 1000 ------- 2 6.0 7.0 25 63
r 0.3004 2 7 cbr 1000 ------- 2 6.0 7.0 21 55
r 0.3016 1 2 cbr 1000 ------- 1 0.0 3.0 35 58
+ 0.3016 2 3 cbr 1000 ------- 1 0.0 3.0 35 58
- 0.3016 2 3 cbr 1000 ------- 1 0.0 3.0 35 58
r 0.3028 6 1 cbr 1000 ------- 2 6.0 7.0 24 61
+ 0.3028 1 2 cbr 1000 ------- 2 6.0 7.0 24 61
- 0.3028 1 2 cbr 1000 ------- 2 6.0 7.0 24 61
+ 0.304 0 1 cbr 1000 ------- 1 0.0 3.0 38 64
- 0.304 0 1 cbr 1000 ------- 1 0.0 3.0 38 64
r 0.3056 1 2 cbr 1000 ------- 2 6.0 7.0 23 59
+ 0.3056 2 7 cbr 1000 ------- 2 6.0 7.0 23 59
- 0.3056 2 7 cbr 1000 ------- 2 6.0 7.0 23 59
r 0.3068 0 1 cbr 1000 ------- 1 0.0 3.0 37 62
+ 0.3068 1 2 cbr 1000 ------- 1 0.0 3.0 37 62
- 0.3068 1 2 cbr 1000 ------- 1 0.0 3.0 37 62
r 0.3076 2 3 cbr 1000 ------- 1 0.0 3.0 34 56
+ 0.308 6 1 cbr 1000 ------- 2 6.0 7.0 26 65
- 0.308 6 1 cbr 1000 ------- 2 6.0 7.0 26 65
r 0.3084 2 7 cbr 1000 ------- 2 6.0 7.0 22 57
r 0.3096 1 2 cbr 1000 ------- 1 0.0 3.0 36 60
+ 0.3096 2 3 cbr 1000 ------- 1 0.0 3.0 36 60
- 0.3096 2 3 cbr 1000 ------- 1 0.0 3.0 36 60
r 0.3108 6 1 cbr 1000 ------- 2 6.0 7.0 25 63
+ 0.3108 1 2 cbr 1000 ------- 2 6.0 7.0 25 63
- 0.3108 1 2 cbr 1000 ------- 2 6.0 7.0 25 63
+ 0.312 0 1 cbr 1000 ------- 1 0.0 3.0 39 66
- 0.312 0 1 cbr 1000 ------- 1 0.0 3.0 39 66
r 0.3136 1 2 cbr 1000 ------- 2 6.0 7.0 24 61
+ 0.3136 2 7 cbr 1000 ------- 2 6.0 7.0 24 61
- 0.3136 2 7 cbr 1000 ------- 2 6.0 7.0 24 61
r 0.3148 0 1 cbr 1000 ------- 1 0.0 3.0 38 64
+ 0.3148 1 2 cbr 1000 ------- 1 0.0 3.0 38 64
- 0.3148 1 2 cbr 1000 ------- 1 0.0 3.0 38 64
r 0.3156 2 3 cbr 1000 ------- 1 0.0 3.0 35 58
+ 0.316 6 1 cbr 1000 ------- 2 6.0 7.0 27 67
- 0.316 6 1 cbr 1000 ------- 2 6.0 7.0 27 67
r 0.3164 2 7 cbr 1000 ------- 2 6.0 7.0 23 59
r 0.3176 1 2 cbr 1000 ------- 1 0.0 3.0 37 62
+ 0.3176 2 3 cbr 1000 ------- 1 0.0 3.0 37 62
- 0.3176 2 3 cbr 1000 ------- 1 0.0 3.0 37 62
r 0.3188 6 1 cbr 1000 ------- 2 6.0 7.0 26 65
+ 0.3188 1 2 cbr 1000 ------- 2 6.0 7.0 26 65
- 0.3188 1 2 cbr 1000 ------- 2 6.0 7.0 26 65
+ 0.32 0 1 cbr 1000 ------- 1 0.0 3.0 40 68
- 0.32 0 1 cbr 1000 ------- 1 0.0 3.0 40 68
r 0.3216 1 2 cbr 1000 ------- 2 6.0 7.0 25 63
+ 0.3216 2 7 cbr 1000 ------- 2 6.0 7.0 25 63
- 0.3216 2 7 cbr 1000 ------- 2 6.0 7.0 25 63
r 0.3228 0 1 cbr 1000 ------- 1 0.0 3.0 39 66
+ 0.3228 1 2 cbr 1000 ------- 1 0.0 3.0 39 66
- 0.3228 1 2 cbr 1000 ------- 1 0.0 3.0 39 66
r 0.3236 2 3 cbr 1000 ------- 1 0.0 3.0 36 60
+ 0.324 6 1 cbr 1000 ------- 2 6.0 7.0 28 69
- 0.324 6 1 cbr 1000 ------- 2 6.0 7.0 28 69
r 0.3244 2 7 cbr 1000 ------- 2 6.0 7.0 24 61
r 0.3256 1 2 cbr 1000 ------- 1 0.0 3.0 38 64
+ 0.3256 2 3 cbr 1000 ------- 1 0.0 3.0 38 64
- 0.3256 2 3 cbr 1000 ------- 1 0.0 3.0 38 64
r 0.3268 6 1 cbr 1000 ------- 2 6.0 7.0 27 67
+ 0.3268 1 2 cbr 1000 ------- 2 6.0 7.0 27 67
- 0.3268 1 2 cbr 1000 ------- 2 6.0 7.0 27 67
+ 0.328 0 1 cbr 1000 ------- 1 0.0 3.0 41 70
- 0.328 0 1 cbr 1000 ------- 1 0.0 3.0 41 70
r 0.3296 1 2 cbr 1000 ------- 2 6.0 7.0 26 65
+ 0.3296 2 7 cbr 1000 ------- 2 6.0 7.0 26 65
- 0.3296 2 7 cbr 1000 ------- 2 6.0 7.0 26 65
r 0.3308 0 1 cbr 1000 ------- 1 0.0 3.0 40 68
+ 0.3308 1 2 cbr 1000 ------- 1 0.0 3.0 40 68
- 0.3308 1 2 cbr 1000 ------- 1 0.0 3.0 40 68
r 0.3316 2 3 cbr 1000 ------- 1 0.0 3.0 37 62
+ 0.332 6 1 cbr 1000 ------- 2 6.0 7.0 29 71
- 0.332 6 1 cbr 1000 ------- 2 6.0 7.0 29 71
r 0.3324 2 7 cbr 1000 ------- 2 6.0 7.0 25 63
r 0.3336 1 2 cbr 1000 ------- 1 0.0 3.0 39 66
+ 0.3336 2 3 cbr 1000 ------- 1 0.0 3.0 39 66
- 0.3336 2 3 cbr 1000 ------- 1 0.0 3.0 39 66
r 0.3348 6 1 cbr 1000 ------- 2 6.0 7.0 28 69
+ 0.3348 1 2 cbr 1000 ------- 2 6.0 7.0 28 69
- 0.3348 1 2 cbr 1000 ------- 2 6.0 7.0 28 69
+ 0.336 0 1 cbr 1000 ------- 1 0.0 3.0 42 72
- 0.336 0 1 cbr 1000 ------- 1 0.0 3.0 42 72
r 0.3376 1 2 cbr 1000 ------- 2 6.0 7.0 27 67
+ 0.3376 2 7 cbr 1000 ------- 2 6.0 7.0 27 67
- 0.3376 2 7 cbr 1000 ------- 2 6.0 7.0 27 67
r 0.3388 0 1 cbr 1000 ------- 1 0.0 3.0 41 70
+ 0.3388 1 2 cbr 1000 ------- 1 0.0 3.0 41 70
- 0.3388 1 2 cbr 1000 ------- 1 0.0 3.0 41 70
r 0.3396 2 3 cbr 1000 ------- 1 0.0 3.0 38 64
+ 0.34 6 1 cbr 1000 ------- 2 6.0 7.0 30 73
- 0.34 6 1 cbr 1000 ------- 2 6.0 7.0 30 73
r 0.3404 2 7 cbr 1000 ------- 2 6.0 7.0 26 65
r 0.3416 1 2 cbr 1000 ------- 1 0.0 3.0 40 68
+ 0.3416 2 3 cbr 1000 ------- 1 0.0 3.0 40 68
- 0.3416 2 3 cbr 1000 ------- 1 0.0 3.0 40 68
r 0.3428 6 1 cbr 1000 ------- 2 6.0 7.0 29 71
+ 0.3428 1 2 cbr 1000 ------- 2 6.0 7.0 29 71
- 0.3428 1 2 cbr 1000 ------- 2 6.0 7.0 29 71
+ 0.344 0 1 cbr 1000 ------- 1 0.0 3.0 43 74
- 0.344 0 1 cbr 1000 ------- 1 0.0 3.0 43 74
r 0.3456 1 2 cbr 1000 ------- 2 6.0 7.0 28 69
+ 0.3456 2 7 cbr 1000 ------- 2 6.0 7.0 28 69
- 0.3456 2 7 cbr 1000 ------- 2 6.0 7.0 28 69
r 0.3468 0 1 cbr 1000 ------- 1 0.0 3.0 42 72
+ 0.3468 1 2 cbr 1000 ------- 1 0.0 3.0 42 72
- 0.3468 1 2 cbr 1000 ------- 1 0.0 3.0 42 72
r 0.3476 2 3 cbr 1000 ------- 1 0.0 3.0 39 66
+ 0.348 6 1 cbr 1000 ------- 2 6.0 7.0 31 75
- 0.348 6 1 cbr 1000 ------- 2 6.0 7.0 31 75
r 0.3484 2 7 cbr 1000 ------- 2 6.0 7.0 27 67
r 0.3496 1 2 cbr 1000 ------- 1 0.0 3.0 41 70
+ 0.3496 2 3 cbr 1000 ------- 1 0.0 3.0 41 70
- 0.3496 2 3 cbr 1000 ------- 1 0.0 3.0 41 70
r 0.3508 6 1 cbr 1000 ------- 2 6.0 7.0 30 73
+ 0.3508 1 2 cbr 1000 ------- 2 6.0 7.0 30 73
- 0.3508 1 2 cbr 1000 ------- 2 6.0 7.0 30 73
+ 0.352 0 1 cbr 1000 ------- 1 0.0 3.0 44 76
- 0.352 0 1 cbr 1000 ------- 1 0.0 3.0 44 76
r 0.3536 1 2 cbr 1000 ------- 2 6.0 7.0 29 71
+ 0.3536 2 7 cbr 1000 ------- 2 6.0 7.0 29 71
- 0.3536 2 7 cbr 1000 ------- 2 6.0 7.0 29 71
r 0.3548 0 1 cbr 1000 ------- 1 0.0 3.0 43 74
+ 0.3548 1 2 cbr 1000 ------- 1 0.0 3.0 43 74