+ 0 0 1 tcp 40 ------- 1 0.0 3.0 0 0
- 0 0 1 tcp 40 ------- 1 0.0 3.0 0 0
r 0.010032 0 1 tcp 40 ------- 1 0.0 3.0 0 0
+ 0.010032 1 2 tcp 40 ------- 1 0.0 3.0 0 0
- 0.010032 1 2 tcp 40 ------- 1 0.0 3.0 0 0
r 0.020245 1 2 tcp 40 ------- 1 0.0 3.0 0 0
+ 0.020245 2 3 tcp 40 ------- 1 0.0 3.0 0 0
- 0.020245 2 3 tcp 40 ------- 1 0.0 3.0 0 0
r 0.030277 2 3 tcp 40 ------- 1 0.0 3.0 0 0
+ 0.030277 3 2 ack 40 ------- 1 3.0 0.0 0 1
- 0.030277 3 2 ack 40 ------- 1 3.0 0.0 0 1
r 0.040309 3 2 ack 40 ------- 1 3.0 0.0 0 1
+ 0.040309 2 1 ack 40 ------- 1 3.0 0.0 0 1
- 0.040309 2 1 ack 40 ------- 1 3.0 0.0 0 1
r 0.050523 2 1 ack 40 ------- 1 3.0 0.0 0 1
+ 0.050523 1 0 ack 40 ------- 1 3.0 0.0 0 1
- 0.050523 1 0 ack 40 ------- 1 3.0 0.0 0 1
r 0.060555 1 0 ack 40 ------- 1 3.0 0.0 0 1
+ 0.060555 0 1 tcp 1040 ------- 1 0.0 3.0 1 2
- 0.060555 0 1 tcp 1040 ------- 1 0.0 3.0 1 2
+ 0.060555 0 1 tcp 1040 ------- 1 0.0 3.0 2 3
- 0.061387 0 1 tcp 1040 ------- 1 0.0 3.0 2 3
r 0.071387 0 1 tcp 1040 ------- 1 0.0 3.0 1 2
+ 0.071387 1 2 tcp 1040 ------- 1 0.0 3.0 1 2
- 0.071387 1 2 tcp 1040 ------- 1 0.0 3.0 1 2
r 0.072219 0 1 tcp 1040 ------- 1 0.0 3.0 2 3
+ 0.072219 1 2 tcp 1040 ------- 1 0.0 3.0 2 3
- 0.076933 1 2 tcp 1040 ------- 1 0.0 3.0 2 3
r 0.086933 1 2 tcp 1040 ------- 1 0.0 3.0 1 2
+ 0.086933 2 3 tcp 1040 ------- 1 0.0 3.0 1 2
- 0.086933 2 3 tcp 1040 ------- 1 0.0 3.0 1 2
r 0.09248 1 2 tcp 1040 ------- 1 0.0 3.0 2 3
+ 0.09248 2 3 tcp 1040 ------- 1 0.0 3.0 2 3
- 0.09248 2 3 tcp 1040 ------- 1 0.0 3.0 2 3
r 0.097765 2 3 tcp 1040 ------- 1 0.0 3.0 1 2
+ 0.097765 3 2 ack 40 ------- 1 3.0 0.0 1 4
- 0.097765 3 2 ack 40 ------- 1 3.0 0.0 1 4
r 0.103312 2 3 tcp 1040 ------- 1 0.0 3.0 2 3
+ 0.103312 3 2 ack 40 ------- 1 3.0 0.0 2 5
- 0.103312 3 2 ack 40 ------- 1 3.0 0.0 2 5
r 0.107797 3 2 ack 40 ------- 1 3.0 0.0 1 4
+ 0.107797 2 1 ack 40 ------- 1 3.0 0.0 1 4
- 0.107797 2 1 ack 40 ------- 1 3.0 0.0 1 4
r 0.113344 3 2 ack 40 ------- 1 3.0 0.0 2 5
+ 0.113344 2 1 ack 40 ------- 1 3.0 0.0 2 5
- 0.113344 2 1 ack 40 ------- 1 3.0 0.0 2 5
r 0.118011 2 1 ack 40 ------- 1 3.0 0.0 1 4
+ 0.118011 1 0 ack 40 ------- 1 3.0 0.0 1 4
- 0.118011 1 0 ack 40 ------- 1 3.0 0.0 1 4
r 0.123557 2 1 ack 40 ------- 1 3.0 0.0 2 5
+ 0.123557 1 0 ack 40 ------- 1 3.0 0.0 2 5
- 0.123557 1 0 ack 40 ------- 1 3.0 0.0 2 5
r 0.128043 1 0 ack 40 ------- 1 3.0 0.0 1 4
+ 0.128043 0 1 tcp 1040 ------- 1 0.0 3.0 3 6
- 0.128043 0 1 tcp 1040 ------- 1 0.0 3.0 3 6
+ 0.128043 0 1 tcp 1040 ------- 1 0.0 3.0 4 7
- 0.128875 0 1 tcp 1040 ------- 1 0.0 3.0 4 7
r 0.133589 1 0 ack 40 ------- 1 3.0 0.0 2 5
+ 0.133589 0 1 tcp 1040 ------- 1 0.0 3.0 5 8
- 0.133589 0 1 tcp 1040 ------- 1 0.0 3.0 5 8
+ 0.133589 0 1 tcp 1040 ------- 1 0.0 3.0 6 9
- 0.134421 0 1 tcp 1040 ------- 1 0.0 3.0 6 9
r 0.138875 0 1 tcp 1040 ------- 1 0.0 3.0 3 6
+ 0.138875 1 2 tcp 1040 ------- 1 0.0 3.0 3 6
- 0.138875 1 2 tcp 1040 ------- 1 0.0 3.0 3 6
r 0.139707 0 1 tcp 1040 ------- 1 0.0 3.0 4 7
+ 0.139707 1 2 tcp 1040 ------- 1 0.0 3.0 4 7
r 0.144421 0 1 tcp 1040 ------- 1 0.0 3.0 5 8
+ 0.144421 1 2 tcp 1040 ------- 1 0.0 3.0 5 8
- 0.144421 1 2 tcp 1040 ------- 1 0.0 3.0 4 7
r 0.145253 0 1 tcp 1040 ------- 1 0.0 3.0 6 9
+ 0.145253 1 2 tcp 1040 ------- 1 0.0 3.0 6 9
- 0.149968 1 2 tcp 1040 ------- 1 0.0 3.0 5 8
r 0.154421 1 2 tcp 1040 ------- 1 0.0 3.0 3 6
+ 0.154421 2 3 tcp 1040 ------- 1 0.0 3.0 3 6
- 0.154421 2 3 tcp 1040 ------- 1 0.0 3.0 3 6
- 0.155515 1 2 tcp 1040 ------- 1 0.0 3.0 6 9
r 0.159968 1 2 tcp 1040 ------- 1 0.0 3.0 4 7
+ 0.159968 2 3 tcp 1040 ------- 1 0.0 3.0 4 7
- 0.159968 2 3 tcp 1040 ------- 1 0.0 3.0 4 7
r 0.165253 2 3 tcp 1040 ------- 1 0.0 3.0 3 6
+ 0.165253 3 2 ack 40 ------- 1 3.0 0.0 3 10
- 0.165253 3 2 ack 40 ------- 1 3.0 0.0 3 10
r 0.165515 1 2 tcp 1040 ------- 1 0.0 3.0 5 8
+ 0.165515 2 3 tcp 1040 ------- 1 0.0 3.0 5 8
- 0.165515 2 3 tcp 1040 ------- 1 0.0 3.0 5 8
r 0.1708 2 3 tcp 1040 ------- 1 0.0 3.0 4 7
+ 0.1708 3 2 ack 40 ------- 1 3.0 0.0 4 11
- 0.1708 3 2 ack 40 ------- 1 3.0 0.0 4 11
r 0.171061 1 2 tcp 1040 ------- 1 0.0 3.0 6 9
+ 0.171061 2 3 tcp 1040 ------- 1 0.0 3.0 6 9
- 0.171061 2 3 tcp 1040 ------- 1 0.0 3.0 6 9
r 0.175285 3 2 ack 40 ------- 1 3.0 0.0 3 10
+ 0.175285 2 1 ack 40 ------- 1 3.0 0.0 3 10
- 0.175285 2 1 ack 40 ------- 1 3.0 0.0 3 10
r 0.176347 2 3 tcp 1040 ------- 1 0.0 3.0 5 8
+ 0.176347 3 2 ack 40 ------- 1 3.0 0.0 5 12
- 0.176347 3 2 ack 40 ------- 1 3.0 0.0 5 12
r 0.180832 3 2 ack 40 ------- 1 3.0 0.0 4 11
+ 0.180832 2 1 ack 40 ------- 1 3.0 0.0 4 11
- 0.180832 2 1 ack 40 ------- 1 3.0 0.0 4 11
r 0.181893 2 3 tcp 1040 ------- 1 0.0 3.0 6 9
+ 0.181893 3 2 ack 40 ------- 1 3.0 0.0 6 13
- 0.181893 3 2 ack 40 ------- 1 3.0 0.0 6 13
r 0.185499 2 1 ack 40 ------- 1 3.0 0.0 3 10
+ 0.185499 1 0 ack 40 ------- 1 3.0 0.0 3 10
- 0.185499 1 0 ack 40 ------- 1 3.0 0.0 3 10
r 0.186379 3 2 ack 40 ------- 1 3.0 0.0 5 12
+ 0.186379 2 1 ack 40 ------- 1 3.0 0.0 5 12
- 0.186379 2 1 ack 40 ------- 1 3.0 0.0 5 12
r 0.191045 2 1 ack 40 ------- 1 3.0 0.0 4 11
+ 0.191045 1 0 ack 40 ------- 1 3.0 0.0 4 11
- 0.191045 1 0 ack 40 ------- 1 3.0 0.0 4 11
r 0.191925 3 2 ack 40 ------- 1 3.0 0.0 6 13
+ 0.191925 2 1 ack 40 ------- 1 3.0 0.0 6 13
- 0.191925 2 1 ack 40 ------- 1 3.0 0.0 6 13
r 0.195531 1 0 ack 40 ------- 1 3.0 0.0 3 10
+ 0.195531 0 1 tcp 1040 ------- 1 0.0 3.0 7 14
- 0.195531 0 1 tcp 1040 ------- 1 0.0 3.0 7 14
+ 0.195531 0 1 tcp 1040 ------- 1 0.0 3.0 8 15
- 0.196363 0 1 tcp 1040 ------- 1 0.0 3.0 8 15
r 0.196592 2 1 ack 40 ------- 1 3.0 0.0 5 12
+ 0.196592 1 0 ack 40 ------- 1 3.0 0.0 5 12
- 0.196592 1 0 ack 40 ------- 1 3.0 0.0 5 12
r 0.201077 1 0 ack 40 ------- 1 3.0 0.0 4 11
+ 0.201077 0 1 tcp 1040 ------- 1 0.0 3.0 9 16
- 0.201077 0 1 tcp 1040 ------- 1 0.0 3.0 9 16
+ 0.201077 0 1 tcp 1040 ------- 1 0.0 3.0 10 17
- 0.201909 0 1 tcp 1040 ------- 1 0.0 3.0 10 17
r 0.202139 2 1 ack 40 ------- 1 3.0 0.0 6 13
+ 0.202139 1 0 ack 40 ------- 1 3.0 0.0 6 13
- 0.202139 1 0 ack 40 ------- 1 3.0 0.0 6 13
r 0.206363 0 1 tcp 1040 ------- 1 0.0 3.0 7 14
+ 0.206363 1 2 tcp 1040 ------- 1 0.0 3.0 7 14
- 0.206363 1 2 tcp 1040 ------- 1 0.0 3.0 7 14
r 0.206624 1 0 ack 40 ------- 1 3.0 0.0 5 12
+ 0.206624 0 1 tcp 1040 ------- 1 0.0 3.0 11 18
- 0.206624 0 1 tcp 1040 ------- 1 0.0 3.0 11 18
+ 0.206624 0 1 tcp 1040 ------- 1 0.0 3.0 12 19
r 0.207195 0 1 tcp 1040 ------- 1 0.0 3.0 8 15
+ 0.207195 1 2 tcp 1040 ------- 1 0.0 3.0 8 15
- 0.207456 0 1 tcp 1040 ------- 1 0.0 3.0 12 19
r 0.211909 0 1 tcp 1040 ------- 1 0.0 3.0 9 16
+ 0.211909 1 2 tcp 1040 ------- 1 0.0 3.0 9 16
- 0.211909 1 2 tcp 1040 ------- 1 0.0 3.0 8 15
r 0.212171 1 0 ack 40 ------- 1 3.0 0.0 6 13
+ 0.212171 0 1 tcp 1040 ------- 1 0.0 3.0 13 20
- 0.212171 0 1 tcp 1040 ------- 1 0.0 3.0 13 20
+ 0.212171 0 1 tcp 1040 ------- 1 0.0 3.0 14 21
r 0.212741 0 1 tcp 1040 ------- 1 0.0 3.0 10 17
+ 0.212741 1 2 tcp 1040 ------- 1 0.0 3.0 10 17
- 0.213003 0 1 tcp 1040 ------- 1 0.0 3.0 14 21
r 0.217456 0 1 tcp 1040 ------- 1 0.0 3.0 11 18
+ 0.217456 1 2 tcp 1040 ------- 1 0.0 3.0 11 18
- 0.217456 1 2 tcp 1040 ------- 1 0.0 3.0 9 16
r 0.218288 0 1 tcp 1040 ------- 1 0.0 3.0 12 19
+ 0.218288 1 2 tcp 1040 ------- 1 0.0 3.0 12 19
r 0.221909 1 2 tcp 1040 ------- 1 0.0 3.0 7 14
+ 0.221909 2 3 tcp 1040 ------- 1 0.0 3.0 7 14
- 0.221909 2 3 tcp 1040 ------- 1 0.0 3.0 7 14
r 0.223003 0 1 tcp 1040 ------- 1 0.0 3.0 13 20
+ 0.223003 1 2 tcp 1040 ------- 1 0.0 3.0 13 20
- 0.223003 1 2 tcp 1040 ------- 1 0.0 3.0 10 17
r 0.223835 0 1 tcp 1040 ------- 1 0.0 3.0 14 21
+ 0.223835 1 2 tcp 1040 ------- 1 0.0 3.0 14 21
r 0.227456 1 2 tcp 1040 ------- 1 0.0 3.0 8 15
+ 0.227456 2 3 tcp 1040 ------- 1 0.0 3.0 8 15
- 0.227456 2 3 tcp 1040 ------- 1 0.0 3.0 8 15
- 0.228549 1 2 tcp 1040 ------- 1 0.0 3.0 11 18
r 0.232741 2 3 tcp 1040 ------- 1 0.0 3.0 7 14
+ 0.232741 3 2 ack 40 ------- 1 3.0 0.0 7 22
- 0.232741 3 2 ack 40 ------- 1 3.0 0.0 7 22
r 0.233003 1 2 tcp 1040 ------- 1 0.0 3.0 9 16
+ 0.233003 2 3 tcp 1040 ------- 1 0.0 3.0 9 16
- 0.233003 2 3 tcp 1040 ------- 1 0.0 3.0 9 16
- 0.234096 1 2 tcp 1040 ------- 1 0.0 3.0 12 19
r 0.238288 2 3 tcp 1040 ------- 1 0.0 3.0 8 15
+ 0.238288 3 2 ack 40 ------- 1 3.0 0.0 8 23
- 0.238288 3 2 ack 40 ------- 1 3.0 0.0 8 23
r 0.238549 1 2 tcp 1040 ------- 1 0.0 3.0 10 17
+ 0.238549 2 3 tcp 1040 ------- 1 0.0 3.0 10 17
- 0.238549 2 3 tcp 1040 ------- 1 0.0 3.0 10 17
- 0.239643 1 2 tcp 1040 ------- 1 0.0 3.0 13 20
r 0.242773 3 2 ack 40 ------- 1 3.0 0.0 7 22
+ 0.242773 2 1 ack 40 ------- 1 3.0 0.0 7 22
- 0.242773 2 1 ack 40 ------- 1 3.0 0.0 7 22
r 0.243835 2 3 tcp 1040 ------- 1 0.0 3.0 9 16
+ 0.243835 3 2 ack 40 ------- 1 3.0 0.0 9 24
- 0.243835 3 2 ack 40 ------- 1 3.0 0.0 9 24
r 0.244096 1 2 tcp 1040 ------- 1 0.0 3.0 11 18
+ 0.244096 2 3 tcp 1040 ------- 1 0.0 3.0 11 18
- 0.244096 2 3 tcp 1040 ------- 1 0.0 3.0 11 18
- 0.245189 1 2 tcp 1040 ------- 1 0.0 3.0 14 21
r 0.24832 3 2 ack 40 ------- 1 3.0 0.0 8 23
+ 0.24832 2 1 ack 40 ------- 1 3.0 0.0 8 23
- 0.24832 2 1 ack 40 ------- 1 3.0 0.0 8 23
r 0.249381 2 3 tcp 1040 ------- 1 0.0 3.0 10 17
+ 0.249381 3 2 ack 40 ------- 1 3.0 0.0 10 25
- 0.249381 3 2 ack 40 ------- 1 3.0 0.0 10 25
r 0.249643 1 2 tcp 1040 ------- 1 0.0 3.0 12 19
+ 0.249643 2 3 tcp 1040 ------- 1 0.0 3.0 12 19
- 0.249643 2 3 tcp 1040 ------- 1 0.0 3.0 12 19
r 0.252987 2 1 ack 40 ------- 1 3.0 0.0 7 22
+ 0.252987 1 0 ack 40 ------- 1 3.0 0.0 7 22
- 0.252987 1 0 ack 40 ------- 1 3.0 0.0 7 22
r 0.253867 3 2 ack 40 ------- 1 3.0 0.0 9 24
+ 0.253867 2 1 ack 40 ------- 1 3.0 0.0 9 24
- 0.253867 2 1 ack 40 ------- 1 3.0 0.0 9 24
r 0.254928 2 3 tcp 1040 ------- 1 0.0 3.0 11 18
+ 0.254928 3 2 ack 40 ------- 1 3.0 0.0 11 26
- 0.254928 3 2 ack 40 ------- 1 3.0 0.0 11 26
r 0.255189 1 2 tcp 1040 ------- 1 0.0 3.0 13 20
+ 0.255189 2 3 tcp 1040 ------- 1 0.0 3.0 13 20
- 0.255189 2 3 tcp 1040 ------- 1 0.0 3.0 13 20
r 0.258533 2 1 ack 40 ------- 1 3.0 0.0 8 23
+ 0.258533 1 0 ack 40 ------- 1 3.0 0.0 8 23
- 0.258533 1 0 ack 40 ------- 1 3.0 0.0 8 23
r 0.259413 3 2 ack 40 ------- 1 3.0 0.0 10 25
+ 0.259413 2 1 ack 40 ------- 1 3.0 0.0 10 25
- 0.259413 2 1 ack 40 ------- 1 3.0 0.0 10 25
r 0.260475 2 3 tcp 1040 ------- 1 0.0 3.0 12 19
+ 0.260475 3 2 ack 40 ------- 1 3.0 0.0 12 27
- 0.260475 3 2 ack 40 ------- 1 3.0 0.0 12 27
r 0.260736 1 2 tcp 1040 ------- 1 0.0 3.0 14 21
+ 0.260736 2 3 tcp 1040 ------- 1 0.0 3.0 14 21
- 0.260736 2 3 tcp 1040 ------- 1 0.0 3.0 14 21
r 0.263019 1 0 ack 40 ------- 1 3.0 0.0 7 22
+ 0.263019 0 1 tcp 1040 ------- 1 0.0 3.0 15 28
- 0.263019 0 1 tcp 1040 ------- 1 0.0 3.0 15 28
+ 0.263019 0 1 tcp 1040 ------- 1 0.0 3.0 16 29
- 0.263851 0 1 tcp 1040 ------- 1 0.0 3.0 16 29
r 0.26408 2 1 ack 40 ------- 1 3.0 0.0 9 24
+ 0.26408 1 0 ack 40 ------- 1 3.0 0.0 9 24
- 0.26408 1 0 ack 40 ------- 1 3.0 0.0 9 24
r 0.26496 3 2 ack 40 ------- 1 3.0 0.0 11 26
+ 0.26496 2 1 ack 40 ------- 1 3.0 0.0 11 26
- 0.26496 2 1 ack 40 ------- 1 3.0 0.0 11 26
r 0.266021 2 3 tcp 1040 ------- 1 0.0 3.0 13 20
+ 0.266021 3 2 ack 40 ------- 1 3.0 0.0 13 30
- 0.266021 3 2 ack 40 ------- 1 3.0 0.0 13 30
r 0.268565 1 0 ack 40 ------- 1 3.0 0.0 8 23
+ 0.268565 0 1 tcp 1040 ------- 1 0.0 3.0 17 31
- 0.268565 0 1 tcp 1040 ------- 1 0.0 3.0 17 31
+ 0.268565 0 1 tcp 1040 ------- 1 0.0 3.0 18 32
- 0.269397 0 1 tcp 1040 ------- 1 0.0 3.0 18 32
r 0.269627 2 1 ack 40 ------- 1 3.0 0.0 10 25
+ 0.269627 1 0 ack 40 ------- 1 3.0 0.0 10 25
- 0.269627 1 0 ack 40 ------- 1 3.0 0.0 10 25
r 0.270507 3 2 ack 40 ------- 1 3.0 0.0 12 27
+ 0.270507 2 1 ack 40 ------- 1 3.0 0.0 12 27
- 0.270507 2 1 ack 40 ------- 1 3.0 0.0 12 27
r 0.271568 2 3 tcp 1040 ------- 1 0.0 3.0 14 21
+ 0.271568 3 2 ack 40 ------- 1 3.0 0.0 14 33
- 0.271568 3 2 ack 40 ------- 1 3.0 0.0 14 33
r 0.273851 0 1 tcp 1040 ------- 1 0.0 3.0 15 28
+ 0.273851 1 2 tcp 1040 ------- 1 0.0 3.0 15 28
- 0.273851 1 2 tcp 1040 ------- 1 0.0 3.0 15 28
r 0.274112 1 0 ack 40 ------- 1 3.0 0.0 9 24
+ 0.274112 0 1 tcp 1040 ------- 1 0.0 3.0 19 34
- 0.274112 0 1 tcp 1040 ------- 1 0.0 3.0 19 34
+ 0.274112 0 1 tcp 1040 ------- 1 0.0 3.0 20 35
r 0.274683 0 1 tcp 1040 ------- 1 0.0 3.0 16 29
+ 0.274683 1 2 tcp 1040 ------- 1 0.0 3.0 16 29
- 0.274944 0 1 tcp 1040 ------- 1 0.0 3.0 20 35
r 0.275173 2 1 ack 40 ------- 1 3.0 0.0 11 26
+ 0.275173 1 0 ack 40 ------- 1 3.0 0.0 11 26
- 0.275173 1 0 ack 40 ------- 1 3.0 0.0 11 26
r 0.276053 3 2 ack 40 ------- 1 3.0 0.0 13 30
+ 0.276053 2 1 ack 40 ------- 1 3.0 0.0 13 30
- 0.276053 2 1 ack 40 ------- 1 3.0 0.0 13 30
r 0.279397 0 1 tcp 1040 ------- 1 0.0 3.0 17 31
+ 0.279397 1 2 tcp 1040 ------- 1 0.0 3.0 17 31
- 0.279397 1 2 tcp 1040 ------- 1 0.0 3.0 16 29
r 0.279659 1 0 ack 40 ------- 1 3.0 0.0 10 25
+ 0.279659 0 1 tcp 1040 ------- 1 0.0 3.0 21 36
- 0.279659 0 1 tcp 1040 ------- 1 0.0 3.0 21 36
+ 0.279659 0 1 tcp 1040 ------- 1 0.0 3.0 22 37
r 0.280229 0 1 tcp 1040 ------- 1 0.0 3.0 18 32
+ 0.280229 1 2 tcp 1040 ------- 1 0.0 3.0 18 32
- 0.280491 0 1 tcp 1040 ------- 1 0.0 3.0 22 37
r 0.28072 2 1 ack 40 ------- 1 3.0 0.0 12 27
+ 0.28072 1 0 ack 40 ------- 1 3.0 0.0 12 27
- 0.28072 1 0 ack 40 ------- 1 3.0 0.0 12 27
r 0.2816 3 2 ack 40 ------- 1 3.0 0.0 14 33
+ 0.2816 2 1 ack 40 ------- 1 3.0 0.0 14 33
- 0.2816 2 1 ack 40 ------- 1 3.0 0.0 14 33
- 0.284944 1 2 tcp 1040 ------- 1 0.0 3.0 17 31
r 0.284944 0 1 tcp 1040 ------- 1 0.0 3.0 19 34
+ 0.284944 1 2 tcp 1040 ------- 1 0.0 3.0 19 34
r 0.285205 1 0 ack 40 ------- 1 3.0 0.0 11 26
+ 0.285205 0 1 tcp 1040 ------- 1 0.0 3.0 23 38
- 0.285205 0 1 tcp 1040 ------- 1 0.0 3.0 23 38
+ 0.285205 0 1 tcp 1040 ------- 1 0.0 3.0 24 39
r 0.285776 0 1 tcp 1040 ------- 1 0.0 3.0 20 35
+ 0.285776 1 2 tcp 1040 ------- 1 0.0 3.0 20 35
- 0.286037 0 1 tcp 1040 ------- 1 0.0 3.0 24 39
r 0.286267 2 1 ack 40 ------- 1 3.0 0.0 13 30
+ 0.286267 1 0 ack 40 ------- 1 3.0 0.0 13 30
- 0.286267 1 0 ack 40 ------- 1 3.0 0.0 13 30
r 0.289397 1 2 tcp 1040 ------- 1 0.0 3.0 15 28
+ 0.289397 2 3 tcp 1040 ------- 1 0.0 3.0 15 28
- 0.289397 2 3 tcp 1040 ------- 1 0.0 3.0 15 28
- 0.290491 1 2 tcp 1040 ------- 1 0.0 3.0 18 32
r 0.290491 0 1 tcp 1040 ------- 1 0.0 3.0 21 36
+ 0.290491 1 2 tcp 1040 ------- 1 0.0 3.0 21 36
r 0.290752 1 0 ack 40 ------- 1 3.0 0.0 12 27
+ 0.290752 0 1 tcp 1040 ------- 1 0.0 3.0 25 40
- 0.290752 0 1 tcp 1040 ------- 1 0.0 3.0 25 40
+ 0.290752 0 1 tcp 1040 ------- 1 0.0 3.0 26 41
r 0.291323 0 1 tcp 1040 ------- 1 0.0 3.0 22 37
+ 0.291323 1 2 tcp 1040 ------- 1 0.0 3.0 22 37
- 0.291584 0 1 tcp 1040 ------- 1 0.0 3.0 26 41
r 0.291813 2 1 ack 40 ------- 1 3.0 0.0 14 33
+ 0.291813 1 0 ack 40 ------- 1 3.0 0.0 14 33
- 0.291813 1 0 ack 40 ------- 1 3.0 0.0 14 33
r 0.294944 1 2 tcp 1040 ------- 1 0.0 3.0 16 29
+ 0.294944 2 3 tcp 1040 ------- 1 0.0 3.0 16 29
- 0.294944 2 3 tcp 1040 ------- 1 0.0 3.0 16 29
- 0.296037 1 2 tcp 1040 ------- 1 0.0 3.0 19 34
r 0.296037 0 1 tcp 1040 ------- 1 0.0 3.0 23 38
+ 0.296037 1 2 tcp 1040 ------- 1 0.0 3.0 23 38
r 0.296299 1 0 ack 40 ------- 1 3.0 0.0 13 30
+ 0.296299 0 1 tcp 1040 ------- 1 0.0 3.0 27 42
- 0.296299 0 1 tcp 1040 ------- 1 0.0 3.0 27 42
+ 0.296299 0 1 tcp 1040 ------- 1 0.0 3.0 28 43
r 0.296869 0 1 tcp 1040 ------- 1 0.0 3.0 24 39
+ 0.296869 1 2 tcp 1040 ------- 1 0.0 3.0 24 39
- 0.297131 0 1 tcp 1040 ------- 1 0.0 3.0 28 43
r 0.300229 2 3 tcp 1040 ------- 1 0.0 3.0 15 28
+ 0.300229 3 2 ack 40 ------- 1 3.0 0.0 15 44
- 0.300229 3 2 ack 40 ------- 1 3.0 0.0 15 44
r 0.300491 1 2 tcp 1040 ------- 1 0.0 3.0 17 31
+ 0.300491 2 3 tcp 1040 ------- 1 0.0 3.0 17 31
- 0.300491 2 3 tcp 1040 ------- 1 0.0 3.0 17 31
- 0.301584 1 2 tcp 1040 ------- 1 0.0 3.0 20 35
r 0.301584 0 1 tcp 1040 ------- 1 0.0 3.0 25 40
+ 0.301584 1 2 tcp 1040 ------- 1 0.0 3.0 25 40
r 0.301845 1 0 ack 40 ------- 1 3.0 0.0 14 33
+ 0.301845 0 1 tcp 1040 ------- 1 0.0 3.0 29 45
- 0.301845 0 1 tcp 1040 ------- 1 0.0 3.0 29 45
+ 0.301845 0 1 tcp 1040 ------- 1 0.0 3.0 30 46
r 0.302416 0 1 tcp 1040 ------- 1 0.0 3.0 26 41
+ 0.302416 1 2 tcp 1040 ------- 1 0.0 3.0 26 41
- 0.302677 0 1 tcp 1040 ------- 1 0.0 3.0 30 46
r 0.305776 2 3 tcp 1040 ------- 1 0.0 3.0 16 29
+ 0.305776 3 2 ack 40 ------- 1 3.0 0.0 16 47
- 0.305776 3 2 ack 40 ------- 1 3.0 0.0 16 47
r 0.306037 1 2 tcp 1040 ------- 1 0.0 3.0 18 32
+ 0.306037 2 3 tcp 1040 ------- 1 0.0 3.0 18 32
- 0.306037 2 3 tcp 1040 ------- 1 0.0 3.0 18 32
- 0.307131 1 2 tcp 1040 ------- 1 0.0 3.0 21 36
r 0.307131 0 1 tcp 1040 ------- 1 0.0 3.0 27 42
+ 0.307131 1 2 tcp 1040 ------- 1 0.0 3.0 27 42
r 0.307963 0 1 tcp 1040 ------- 1 0.0 3.0 28 43
+ 0.307963 1 2 tcp 1040 ------- 1 0.0 3.0 28 43
r 0.310261 3 2 ack 40 ------- 1 3.0 0.0 15 44
+ 0.310261 2 1 ack 40 ------- 1 3.0 0.0 15 44
- 0.310261 2 1 ack 40 ------- 1 3.0 0.0 15 44
r 0.311323 2 3 tcp 1040 ------- 1 0.0 3.0 17 31
+ 0.311323 3 2 ack 40 ------- 1 3.0 0.0 17 48
- 0.311323 3 2 ack 40 ------- 1 3.0 0.0 17 48
r 0.311584 1 2 tcp 1040 ------- 1 0.0 3.0 19 34
+ 0.311584 2 3 tcp 1040 ------- 1 0.0 3.0 19 34
- 0.311584 2 3 tcp 1040 ------- 1 0.0 3.0 19 34
- 0.312677 1 2 tcp 1040 ------- 1 0.0 3.0 22 37
r 0.312677 0 1 tcp 1040 ------- 1 0.0 3.0 29 45
+ 0.312677 1 2 tcp 1040 ------- 1 0.0 3.0 29 45
r 0.313509 0 1 tcp 1040 ------- 1 0.0 3.0 30 46
+ 0.313509 1 2 tcp 1040 ------- 1 0.0 3.0 30 46
r 0.315808 3 2 ack 40 ------- 1 3.0 0.0 16 47
+ 0.315808 2 1 ack 40 ------- 1 3.0 0.0 16 47
- 0.315808 2 1 ack 40 ------- 1 3.0 0.0 16 47
r 0.316869 2 3 tcp 1040 ------- 1 0.0 3.0 18 32
+ 0.316869 3 2 ack 40 ------- 1 3.0 0.0 18 49
- 0.316869 3 2 ack 40 ------- 1 3.0 0.0 18 49
r 0.317131 1 2 tcp 1040 ------- 1 0.0 3.0 20 35
+ 0.317131 2 3 tcp 1040 ------- 1 0.0 3.0 20 35
- 0.317131 2 3 tcp 1040 ------- 1 0.0 3.0 20 35
- 0.318224 1 2 tcp 1040 ------- 1 0.0 3.0 23 38
r 0.320475 2 1 ack 40 ------- 1 3.0 0.0 15 44
+ 0.320475 1 0 ack 40 ------- 1 3.0 0.0 15 44
- 0.320475 1 0 ack 40 ------- 1 3.0 0.0 15 44
r 0.321355 3 2 ack 40 ------- 1 3.0 0.0 17 48
+ 0.321355 2 1 ack 40 ------- 1 3.0 0.0 17 48
- 0.321355 2 1 ack 40 ------- 1 3.0 0.0 17 48
r 0.322416 2 3 tcp 1040 ------- 1 0.0 3.0 19 34
+ 0.322416 3 2 ack 40 ------- 1 3.0 0.0 19 50
- 0.322416 3 2 ack 40 ------- 1 3.0 0.0 19 50
r 0.322677 1 2 tcp 1040 ------- 1 0.0 3.0 21 36
+ 0.322677 2 3 tcp 1040 ------- 1 0.0 3.0 21 36
- 0.322677 2 3 tcp 1040 ------- 1 0.0 3.0 21 36
- 0.323771 1 2 tcp 1040 ------- 1 0.0 3.0 24 39
r 0.326021 2 1 ack 40 ------- 1 3.0 0.0 16 47
+ 0.326021 1 0 ack 40 ------- 1 3.0 0.0 16 47
- 0.326021 1 0 ack 40 ------- 1 3.0 0.0 16 47
r 0.326901 3 2 ack 40 ------- 1 3.0 0.0 18 49
+ 0.326901 2 1 ack 40 ------- 1 3.0 0.0 18 49
- 0.326901 2 1 ack 40 ------- 1 3.0 0.0 18 49
r 0.327963 2 3 tcp 1040 ------- 1 0.0 3.0 20 35
+ 0.327963 3 2 ack 40 ------- 1 3.0 0.0 20 51
- 0.327963 3 2 ack 40 ------- 1 3.0 0.0 20 51
r 0.328224 1 2 tcp 1040 ------- 1 0.0 3.0 22 37
+ 0.328224 2 3 tcp 1040 ------- 1 0.0 3.0 22 37
- 0.328224 2 3 tcp 1040 ------- 1 0.0 3.0 22 37
- 0.329317 1 2 tcp 1040 ------- 1 0.0 3.0 25 40
r 0.330507 1 0 ack 40 ------- 1 3.0 0.0 15 44
+ 0.330507 0 1 tcp 1040 ------- 1 0.0 3.0 31 52
- 0.330507 0 1 tcp 1040 ------- 1 0.0 3.0 31 52
+ 0.330507 0 1 tcp 1040 ------- 1 0.0 3.0 32 53
- 0.331339 0 1 tcp 1040 ------- 1 0.0 3.0 32 53
r 0.331568 2 1 ack 40 ------- 1 3.0 0.0 17 48
+ 0.331568 1 0 ack 40 ------- 1 3.0 0.0 17 48
- 0.331568 1 0 ack 40 ------- 1 3.0 0.0 17 48
r 0.332448 3 2 ack 40 ------- 1 3.0 0.0 19 50
+ 0.332448 2 1 ack 40 ------- 1 3.0 0.0 19 50
- 0.332448 2 1 ack 40 ------- 1 3.0 0.0 19 50
r 0.333509 2 3 tcp 1040 ------- 1 0.0 3.0 21 36
+ 0.333509 3 2 ack 40 ------- 1 3.0 0.0 21 54
- 0.333509 3 2 ack 40 ------- 1 3.0 0.0 21 54
r 0.333771 1 2 tcp 1040 ------- 1 0.0 3.0 23 38
+ 0.333771 2 3 tcp 1040 ------- 1 0.0 3.0 23 38
- 0.333771 2 3 tcp 1040 ------- 1 0.0 3.0 23 38
- 0.334864 1 2 tcp 1040 ------- 1 0.0 3.0 26 41
r 0.336053 1 0 ack 40 ------- 1 3.0 0.0 16 47
+ 0.336053 0 1 tcp 1040 ------- 1 0.0 3.0 33 55
- 0.336053 0 1 tcp 1040 ------- 1 0.0 3.0 33 55
+ 0.336053 0 1 tcp 1040 ------- 1 0.0 3.0 34 56
- 0.336885 0 1 tcp 1040 ------- 1 0.0 3.0 34 56
r 0.337115 2 1 ack 40 ------- 1 3.0 0.0 18 49
+ 0.337115 1 0 ack 40 ------- 1 3.0 0.0 18 49
- 0.337115 1 0 ack 40 ------- 1 3.0 0.0 18 49
r 0.337995 3 2 ack 40 ------- 1 3.0 0.0 20 51
+ 0.337995 2 1 ack 40 ------- 1 3.0 0.0 20 51
- 0.337995 2 1 ack 40 ------- 1 3.0 0.0 20 51
r 0.339056 2 3 tcp 1040 ------- 1 0.0 3.0 22 37
+ 0.339056 3 2 ack 40 ------- 1 3.0 0.0 22 57
- 0.339056 3 2 ack 40 ------- 1 3.0 0.0 22 57
r 0.339317 1 2 tcp 1040 ------- 1 0.0 3.0 24 39
+ 0.339317 2 3 tcp 1040 ------- 1 0.0 3.0 24 39
- 0.339317 2 3 tcp 1040 ------- 1 0.0 3.0 24 39
- 0.340411 1 2 tcp 1040 ------- 1 0.0 3.0 27 42
r 0.341339 0 1 tcp 1040 ------- 1 0.0 3.0 31 52
+ 0.341339 1 2 tcp 1040 ------- 1 0.0 3.0 31 52
r 0.3416 1 0 ack 40 ------- 1 3.0 0.0 17 48
+ 0.3416 0 1 tcp 1040 ------- 1 0.0 3.0 35 58
- 0.3416 0 1 tcp 1040 ------- 1 0.0 3.0 35 58
+ 0.3416 0 1 tcp 1040 ------- 1 0.0 3.0 36 59
r 0.342171 0 1 tcp 1040 ------- 1 0.0 3.0 32 53
+ 0.342171 1 2 tcp 1040 ------- 1 0.0 3.0 32 53
- 0.342432 0 1 tcp 1040 ------- 1 0.0 3.0 36 59
r 0.342661 2 1 ack 40 ------- 1 3.0 0.0 19 50
+ 0.342661 1 0 ack 40 ------- 1 3.0 0.0 19 50
- 0.342661 1 0 ack 40 ------- 1 3.0 0.0 19 50
r 0.343541 3 2 ack 40 ------- 1 3.0 0.0 21 54
+ 0.343541 2 1 ack 40 ------- 1 3.0 0.0 21 54
- 0.343541 2 1 ack 40 ------- 1 3.0 0.0 21 54
r 0.344603 2 3 tcp 1040 ------- 1 0.0 3.0 23 38
+ 0.344603 3 2 ack 40 ------- 1 3.0 0.0 23 60
- 0.344603 3 2 ack 40 ------- 1 3.0 0.0 23 60
r 0.344864 1 2 tcp 1040 ------- 1 0.0 3.0 25 40
+ 0.344864 2 3 tcp 1040 ------- 1 0.0 3.0 25 40
- 0.344864 2 3 tcp 1040 ------- 1 0.0 3.0 25 40
- 0.345957 1 2 tcp 1040 ------- 1 0.0 3.0 28 43
r 0.346885 0 1 tcp 1040 ------- 1 0.0 3.0 33 55
+ 0.346885 1 2 tcp 1040 ------- 1 0.0 3.0 33 55
r 0.347147 1 0 ack 40 ------- 1 3.0 0.0 18 49
+ 0.347147 0 1 tcp 1040 ------- 1 0.0 3.0 37 61
- 0.347147 0 1 tcp 1040 ------- 1 0.0 3.0 37 61
+ 0.347147 0 1 tcp 1040 ------- 1 0.0 3.0 38 62
r 0.347717 0 1 tcp 1040 ------- 1 0.0 3.0 34 56
+ 0.347717 1 2 tcp 1040 ------- 1 0.0 3.0 34 56
- 0.347979 0 1 tcp 1040 ------- 1 0.0 3.0 38 62
r 0.348208 2 1 ack 40 ------- 1 3.0 0.0 20 51
+ 0.348208 1 0 ack 40 ------- 1 3.0 0.0 20 51
- 0.348208 1 0 ack 40 ------- 1 3.0 0.0 20 51
r 0.349088 3 2 ack 40 ------- 1 3.0 0.0 22 57
+ 0.349088 2 1 ack 40 ------- 1 3.0 0.0 22 57
- 0.349088 2 1 ack 40 ------- 1 3.0 0.0 22 57
r 0.350149 2 3 tcp 1040 ------- 1 0.0 3.0 24 39
+ 0.350149 3 2 ack 40 ------- 1 3.0 0.0 24 63
- 0.350149 3 2 ack 40 ------- 1 3.0 0.0 24 63
r 0.350411 1 2 tcp 1040 ------- 1 0.0 3.0 26 41
+ 0.350411 2 3 tcp 1040 ------- 1 0.0 3.0 26 41
- 0.350411 2 3 tcp 1040 ------- 1 0.0 3.0 26 41
- 0.351504 1 2 tcp 1040 ------- 1 0.0 3.0 29 45
r 0.352432 0 1 tcp 1040 ------- 1 0.0 3.0 35 58
+ 0.352432 1 2 tcp 1040 ------- 1 0.0 3.0 35 58
r 0.352693 1 0 ack 40 ------- 1 3.0 0.0 19 50
+ 0.352693 0 1 tcp 1040 ------- 1 0.0 3.0 39 64
- 0.352693 0 1 tcp 1040 ------- 1 0.0 3.0 39 64
r 0.353264 0 1 tcp 1040 ------- 1 0.0 3.0 36 59
+ 0.353264 1 2 tcp 1040 ------- 1 0.0 3.0 36 59
r 0.353755 2 1 ack 40 ------- 1 3.0 0.0 21 54
+ 0.353755 1 0 ack 40 ------- 1 3.0 0.0 21 54
- 0.353755 1 0 ack 40 ------- 1 3.0 0.0 21 54
r 0.354635 3 2 ack 40 ------- 1 3.0 0.0 23 60
+ 0.354635 2 1 ack 40 ------- 1 3.0 0.0 23 60
- 0.354635 2 1 ack 40 ------- 1 3.0 0.0 23 60
r 0.355696 2 3 tcp 1040 ------- 1 0.0 3.0 25 40
+ 0.355696 3 2 ack 40 ------- 1 3.0 0.0 25 65
- 0.355696 3 2 ack 40 ------- 1 3.0 0.0 25 65
r 0.355957 1 2 tcp 1040 ------- 1 0.0 3.0 27 42
+ 0.355957 2 3 tcp 1040 ------- 1 0.0 3.0 27 42
- 0.355957 2 3 tcp 1040 ------- 1 0.0 3.0 27 42
- 0.357051 1 2 tcp 1040 ------- 1 0.0 3.0 30 46
r 0.357979 0 1 tcp 1040 ------- 1 0.0 3.0 37 61
+ 0.357979 1 2 tcp 1040 ------- 1 0.0 3.0 37 61
r 0.35824 1 0 ack 40 ------- 1 3.0 0.0 20 51
+ 0.35824 0 1 tcp 1040 ------- 1 0.0 3.0 40 66
- 0.35824 0 1 tcp 1040 ------- 1 0.0 3.0 40 66
r 0.358811 0 1 tcp 1040 ------- 1 0.0 3.0 38 62
+ 0.358811 1 2 tcp 1040 ------- 1 0.0 3.0 38 62
r 0.359301 2 1 ack 40 ------- 1 3.0 0.0 22 57
+ 0.359301 1 0 ack 40 ------- 1 3.0 0.0 22 57
- 0.359301 1 0 ack 40 ------- 1 3.0 0.0 22 57
r 0.360181 3 2 ack 40 ------- 1 3.0 0.0 24 63
+ 0.360181 2 1 ack 40 ------- 1 3.0 0.0 24 63
- 0.360181 2 1 ack 40 ------- 1 3.0 0.0 24 63
r 0.361243 2 3 tcp 1040 ------- 1 0.0 3.0 26 41
+ 0.361243 3 2 ack 40 ------- 1 3.0 0.0 26 67
- 0.361243 3 2 ack 40 ------- 1 3.0 0.0 26 67
r 0.361504 1 2 tcp 1040 ------- 1 0.0 3.0 28 43
+ 0.361504 2 3 tcp 1040 ------- 1 0.0 3.0 28 43
- 0.361504 2 3 tcp 1040 ------- 1 0.0 3.0 28 43
- 0.362597 1 2 tcp 1040 ------- 1 0.0 3.0 31 52
r 0.363525 0 1 tcp 1040 ------- 1 0.0 3.0 39 64
+ 0.363525 1 2 tcp 1040 ------- 1 0.0 3.0 39 64
r 0.363787 1 0 ack 40 ------- 1 3.0 0.0 21 54
+ 0.363787 0 1 tcp 1040 ------- 1 0.0 3.0 41 68
- 0.363787 0 1 tcp 1040 ------- 1 0.0 3.0 41 68
r 0.364848 2 1 ack 40 ------- 1 3.0 0.0 23 60
+ 0.364848 1 0 ack 40 ------- 1 3.0 0.0 23 60
- 0.364848 1 0 ack 40 ------- 1 3.0 0.0 23 60
r 0.365728 3 2 ack 40 ------- 1 3.0 0.0 25 65
+ 0.365728 2 1 ack 40 ------- 1 3.0 0.0 25 65
- 0.365728 2 1 ack 40 ------- 1 3.0 0.0 25 65
r 0.366789 2 3 tcp 1040 ------- 1 0.0 3.0 27 42
+ 0.366789 3 2 ack 40 ------- 1 3.0 0.0 27 69
- 0.366789 3 2 ack 40 ------- 1 3.0 0.0 27 69
r 0.367051 1 2 tcp 1040 ------- 1 0.0 3.0 29 45
+ 0.367051 2 3 tcp 1040 ------- 1 0.0 3.0 29 45
- 0.367051 2 3 tcp 1040 ------- 1 0.0 3.0 29 45
- 0.368144 1 2 tcp 1040 ------- 1 0.0 3.0 32 53
r 0.369072 0 1 tcp 1040 ------- 1 0.0 3.0 40 66
+ 0.369072 1 2 tcp 1040 ------- 1 0.0 3.0 40 66
r 0.369333 1 0 ack 40 ------- 1 3.0 0.0 22 57
+ 0.369333 0 1 tcp 1040 ------- 1 0.0 3.0 42 70
- 0.369333 0 1 tcp 1040 ------- 1 0.0 3.0 42 70
r 0.370395 2 1 ack 40 ------- 1 3.0 0.0 24 63
+ 0.370395 1 0 ack 40 ------- 1 3.0 0.0 24 63
- 0.370395 1 0 ack 40 ------- 1 3.0 0.0 24 63
r 0.371275 3 2 ack 40 ------- 1 3.0 0.0 26 67
+ 0.371275 2 1 ack 40 ------- 1 3.0 0.0 26 67
- 0.371275 2 1 ack 40 ------- 1 3.0 0.0 26 67
r 0.372336 2 3 tcp 1040 ------- 1 0.0 3.0 28 43
+ 0.372336 3 2 ack 40 ------- 1 3.0 0.0 28 71
- 0.372336 3 2 ack 40 ------- 1 3.0 0.0 28 71
r 0.372597 1 2 tcp 1040 ------- 1 0.0 3.0 30 46
+ 0.372597 2 3 tcp 1040 ------- 1 0.0 3.0 30 46
- 0.372597 2 3 tcp 1040 ------- 1 0.0 3.0 30 46
- 0.373691 1 2 tcp 1040 ------- 1 0.0 3.0 33 55
r 0.374619 0 1 tcp 1040 ------- 1 0.0 3.0 41 68
+ 0.374619 1 2 tcp 1040 ------- 1 0.0 3.0 41 68
r 0.37488 1 0 ack 40 ------- 1 3.0 0.0 23 60
+ 0.37488 0 1 tcp 1040 ------- 1 0.0 3.0 43 72
- 0.37488 0 1 tcp 1040 ------- 1 0.0 3.0 43 72
r 0.375941 2 1 ack 40 ------- 1 3.0 0.0 25 65
+ 0.375941 1 0 ack 40 ------- 1 3.0 0.0 25 65
- 0.375941 1 0 ack 40 ------- 1 3.0 0.0 25 65
r 0.376821 3 2 ack 40 ------- 1 3.0 0.0 27 69
+ 0.376821 2 1 ack 40 ------- 1 3.0 0.0 27 69
- 0.376821 2 1 ack 40 ------- 1 3.0 0.0 27 69
r 0.377883 2 3 tcp 1040 ------- 1 0.0 3.0 29 45
+ 0.377883 3 2 ack 40 ------- 1 3.0 0.0 29 73
- 0.377883 3 2 ack 40 ------- 1 3.0 0.0 29 73
r 0.378144 1 2 tcp 1040 ------- 1 0.0 3.0 31 52
+ 0.378144 2 3 tcp 1040 ------- 1 0.0 3.0 31 52
- 0.378144 2 3 tcp 1040 ------- 1 0.0 3.0 31 52
- 0.379237 1 2 tcp 1040 ------- 1 0.0 3.0 34 56
r 0.380165 0 1 tcp 1040 ------- 1 0.0 3.0 42 70
+ 0.380165 1 2 tcp 1040 ------- 1 0.0 3.0 42 70
r 0.380427 1 0 ack 40 ------- 1 3.0 0.0 24 63
+ 0.380427 0 1 tcp 1040 ------- 1 0.0 3.0 44 74
- 0.380427 0 1 tcp 1040 ------- 1 0.0 3.0 44 74
r 0.381488 2 1 ack 40 ------- 1 3.0 0.0 26 67
+ 0.381488 1 0 ack 40 ------- 1 3.0 0.0 26 67
- 0.381488 1 0 ack 40 ------- 1 3.0 0.0 26 67
r 0.382368 3 2 ack 40 ------- 1 3.0 0.0 28 71
+ 0.382368 2 1 ack 40 ------- 1 3.0 0.0 28 71
- 0.382368 2 1 ack 40 ------- 1 3.0 0.0 28 71
r 0.383429 2 3 tcp 1040 ------- 1 0.0 3.0 30 46
+ 0.383429 3 2 ack 40 ------- 1 3.0 0.0 30 75
- 0.383429 3 2 ack 40 ------- 1 3.0 0.0 30 75
r 0.383691 1 2 tcp 1040 ------- 1 0.0 3.0 32 53
+ 0.383691 2 3 tcp 1040 ------- 1 0.0 3.0 32 53
- 0.383691 2 3 tcp 1040 ------- 1 0.0 3.0 32 53
- 0.384784 1 2 tcp 1040 ------- 1 0.0 3.0 35 58
r 0.385712 0 1 tcp 1040 ------- 1 0.0 3.0 43 72
+ 0.385712 1 2 tcp 1040 ------- 1 0.0 3.0 43 72
r 0.385973 1 0 ack 40 ------- 1 3.0 0.0 25 65
+ 0.385973 0 1 tcp 1040 ------- 1 0.0 3.0 45 76
- 0.385973 0 1 tcp 1040 ------- 1 0.0 3.0 45 76
r 0.387035 2 1 ack 40 ------- 1 3.0 0.0 27 69
+ 0.387035 1 0 ack 40 ------- 1 3.0 0.0 27 69
- 0.387035 1 0 ack 40 ------- 1 3.0 0.0 27 69
r 0.387915 3 2 ack 40 ------- 1 3.0 0.0 29 73
+ 0.387915 2 1 ack 40 ------- 1 3.0 0.0 29 73
- 0.387915 2 1 ack 40 ------- 1 3.0 0.0 29 73
r 0.388976 2 3 tcp 1040 ------- 1 0.0 3.0 31 52
+ 0.388976 3 2 ack 40 ------- 1 3.0 0.0 31 77
- 0.388976 3 2 ack 40 ------- 1 3.0 0.0 31 77
r 0.389237 1 2 tcp 1040 ------- 1 0.0 3.0 33 55
+ 0.389237 2 3 tcp 1040 ------- 1 0.0 3.0 33 55
- 0.389237 2 3 tcp 1040 ------- 1 0.0 3.0 33 55
- 0.390331 1 2 tcp 1040 ------- 1 0.0 3.0 36 59
r 0.391259 0 1 tcp 1040 ------- 1 0.0 3.0 44 74
+ 0.391259 1 2 tcp 1040 ------- 1 0.0 3.0 44 74
r 0.39152 1 0 ack 40 ------- 1 3.0 0.0 26 67
+ 0.39152 0 1 tcp 1040 ------- 1 0.0 3.0 46 78
- 0.39152 0 1 tcp 1040 ------- 1 0.0 3.0 46 78
r 0.392581 2 1 ack 40 ------- 1 3.0 0.0 28 71
+ 0.392581 1 0 ack 40 ------- 1 3.0 0.0 28 71
- 0.392581 1 0 ack 40 ------- 1 3.0 0.0 28 71
r 0.393461 3 2 ack 40 ------- 1 3.0 0.0 30 75
+ 0.393461 2 1 ack 40 ------- 1 3.0 0.0 30 75
- 0.393461 2 1 ack 40 ------- 1 3.0 0.0 30 75
r 0.394523 2 3 tcp 1040 ------- 1 0.0 3.0 32 53
+ 0.394523 3 2 ack 40 ------- 1 3.0 0.0 32 79
- 0.394523 3 2 ack 40 ------- 1 3.0 0.0 32 79
r 0.394784 1 2 tcp 1040 ------- 1 0.0 3.0 34 56
+ 0.394784 2 3 tcp 1040 ------- 1 0.0 3.0 34 56
- 0.394784 2 3 tcp 1040 ------- 1 0.0 3.0 34 56
- 0.395877 1 2 tcp 1040 ------- 1 0.0 3.0 37 61
r 0.396805 0 1 tcp 1040 ------- 1 0.0 3.0 45 76
+ 0.396805 1 2 tcp 1040 ------- 1 0.0 3.0 45 76
r 0.397067 1 0 ack 40 ------- 1 3.0 0.0 27 69
+ 0.397067 0 1 tcp 1040 ------- 1 0.0 3.0 47 80
- 0.397067 0 1 tcp 1040 ------- 1 0.0 3.0 47 80
r 0.398128 2 1 ack 40 ------- 1 3.0 0.0 29 73
+ 0.398128 1 0 ack 40 ------- 1 3.0 0.0 29 73
- 0.398128 1 0 ack 40 ------- 1 3.0 0.0 29 73
r 0.399008 3 2 ack 40 ------- 1 3.0 0.0 31 77
+ 0.399008 2 1 ack 40 ------- 1 3.0 0.0 31 77