V -t * -v 1.0a5 -a 0
A -t * -n 1 -p 0 -o 0xffffffff -c 31 -a 1
A -t * -h 1 -m 2147483647 -s 0
n -t * -a 4 -s 4 -S UP -v circle -c black -i black
n -t * -a 0 -s 0 -S UP -v circle -c black -i black
n -t * -a 5 -s 5 -S UP -v circle -c black -i black
n -t * -a 1 -s 1 -S UP -v circle -c black -i black
n -t * -a 6 -s 6 -S UP -v circle -c black -i black
n -t * -a 2 -s 2 -S UP -v circle -c black -i black
n -t * -a 7 -s 7 -S UP -v circle -c black -i black
n -t * -a 3 -s 3 -S UP -v circle -c black -i black
l -t * -s 0 -d 1 -S UP -r 10000000 -D 0.01 -c black
l -t * -s 1 -d 4 -S UP -r 10000000 -D 0.01 -c black
l -t * -s 1 -d 2 -S UP -r 10000000 -D 0.01 -c black
l -t * -s 2 -d 3 -S UP -r 2000000 -D 0.01 -c black
l -t * -s 2 -d 5 -S UP -r 10000000 -D 0.01 -c black
l -t * -s 2 -d 7 -S UP -r 10000000 -D 0.01 -c black
l -t * -s 6 -d 1 -S UP -r 10000000 -D 0.01 -c black
+ -t 0 -s 0 -d 1 -p cbr -e 1000 -c 1 -i 0 -a 1 -x {0.0 3.0 0 ------- null}
- -t 0 -s 0 -d 1 -p cbr -e 1000 -c 1 -i 0 -a 1 -x {0.0 3.0 0 ------- null}
h -t 0 -s 0 -d 1 -p cbr -e 1000 -c 1 -i 0 -a 1 -x {0.0 3.0 -1 ------- null}
+ -t 0.008 -s 0 -d 1 -p cbr -e 1000 -c 1 -i 1 -a 1 -x {0.0 3.0 1 ------- null}
- -t 0.008 -s 0 -d 1 -p cbr -e 1000 -c 1 -i 1 -a 1 -x {0.0 3.0 1 ------- null}
h -t 0.008 -s 0 -d 1 -p cbr -e 1000 -c 1 -i 1 -a 1 -x {0.0 3.0 -1 ------- null}
r -t 0.0108 -s 0 -d 1 -p cbr -e 1000 -c 1 -i 0 -a 1 -x {0.0 3.0 0 ------- null}
+ -t 0.0108 -s 1 -d 2 -p cbr -e 1000 -c 1 -i 0 -a 1 -x {0.0 3.0 0 ------- null}
- -t 0.0108 -s 1 -d 2 -p cbr -e 1000 -c 1 -i 0 -a 1 -x {0.0 3.0 0 ------- null}
h -t 0.0108 -s 1 -d 2 -p cbr -e 1000 -c 1 -i 0 -a 1 -x {0.0 3.0 -1 ------- null}
+ -t 0.016 -s 0 -d 1 -p cbr -e 1000 -c 1 -i 2 -a 1 -x {0.0 3.0 2 ------- null}
- -t 0.016 -s 0 -d 1 -p cbr -e 1000 -c 1 -i 2 -a 1 -x {0.0 3.0 2 ------- null}
h -t 0.016 -s 0 -d 1 -p cbr -e 1000 -c 1 -i 2 -a 1 -x {0.0 3.0 -1 ------- null}
r -t 0.0188 -s 0 -d 1 -p cbr -e 1000 -c 1 -i 1 -a 1 -x {0.0 3.0 1 ------- null}
+ -t 0.0188 -s 1 -d 2 -p cbr -e 1000 -c 1 -i 1 -a 1 -x {0.0 3.0 1 ------- null}
- -t 0.0188 -s 1 -d 2 -p cbr -e 1000 -c 1 -i 1 -a 1 -x {0.0 3.0 1 ------- null}
h -t 0.0188 -s 1 -d 2 -p cbr -e 1000 -c 1 -i 1 -a 1 -x {0.0 3.0 -1 ------- null}
r -t 0.0216 -s 1 -d 2 -p cbr -e 1000 -c 1 -i 0 -a 1 -x {0.0 3.0 0 ------- null}
+ -t 0.0216 -s 2 -d 3 -p cbr -e 1000 -c 1 -i 0 -a 1 -x {0.0 3.0 0 ------- null}
- -t 0.0216 -s 2 -d 3 -p cbr -e 1000 -c 1 -i 0 -a 1 -x {0.0 3.0 0 ------- null}
h -t 0.0216 -s 2 -d 3 -p cbr -e 1000 -c 1 -i 0 -a 1 -x {0.0 3.0 -1 ------- null}
+ -t 0.024 -s 0 -d 1 -p cbr -e 1000 -c 1 -i 3 -a 1 -x {0.0 3.0 3 ------- null}
- -t 0.024 -s 0 -d 1 -p cbr -e 1000 -c 1 -i 3 -a 1 -x {0.0 3.0 3 ------- null}
h -t 0.024 -s 0 -d 1 -p cbr -e 1000 -c 1 -i 3 -a 1 -x {0.0 3.0 -1 ------- null}
r -t 0.0268 -s 0 -d 1 -p cbr -e 1000 -c 1 -i 2 -a 1 -x {0.0 3.0 2 ------- null}
+ -t 0.0268 -s 1 -d 2 -p cbr -e 1000 -c 1 -i 2 -a 1 -x {0.0 3.0 2 ------- null}
- -t 0.0268 -s 1 -d 2 -p cbr -e 1000 -c 1 -i 2 -a 1 -x {0.0 3.0 2 ------- null}
h -t 0.0268 -s 1 -d 2 -p cbr -e 1000 -c 1 -i 2 -a 1 -x {0.0 3.0 -1 ------- null}
r -t 0.0296 -s 1 -d 2 -p cbr -e 1000 -c 1 -i 1 -a 1 -x {0.0 3.0 1 ------- null}
+ -t 0.0296 -s 2 -d 3 -p cbr -e 1000 -c 1 -i 1 -a 1 -x {0.0 3.0 1 ------- null}
- -t 0.0296 -s 2 -d 3 -p cbr -e 1000 -c 1 -i 1 -a 1 -x {0.0 3.0 1 ------- null}
h -t 0.0296 -s 2 -d 3 -p cbr -e 1000 -c 1 -i 1 -a 1 -x {0.0 3.0 -1 ------- null}
+ -t 0.032 -s 0 -d 1 -p cbr -e 1000 -c 1 -i 4 -a 1 -x {0.0 3.0 4 ------- null}
- -t 0.032 -s 0 -d 1 -p cbr -e 1000 -c 1 -i 4 -a 1 -x {0.0 3.0 4 ------- null}
h -t 0.032 -s 0 -d 1 -p cbr -e 1000 -c 1 -i 4 -a 1 -x {0.0 3.0 -1 ------- null}
r -t 0.0348 -s 0 -d 1 -p cbr -e 1000 -c 1 -i 3 -a 1 -x {0.0 3.0 3 ------- null}
+ -t 0.0348 -s 1 -d 2 -p cbr -e 1000 -c 1 -i 3 -a 1 -x {0.0 3.0 3 ------- null}
- -t 0.0348 -s 1 -d 2 -p cbr -e 1000 -c 1 -i 3 -a 1 -x {0.0 3.0 3 ------- null}
h -t 0.0348 -s 1 -d 2 -p cbr -e 1000 -c 1 -i 3 -a 1 -x {0.0 3.0 -1 ------- null}
r -t 0.0356 -s 2 -d 3 -p cbr -e 1000 -c 1 -i 0 -a 1 -x {0.0 3.0 0 ------- null}
r -t 0.0376 -s 1 -d 2 -p cbr -e 1000 -c 1 -i 2 -a 1 -x {0.0 3.0 2 ------- null}
+ -t 0.0376 -s 2 -d 3 -p cbr -e 1000 -c 1 -i 2 -a 1 -x {0.0 3.0 2 ------- null}
- -t 0.0376 -s 2 -d 3 -p cbr -e 1000 -c 1 -i 2 -a 1 -x {0.0 3.0 2 ------- null}
h -t 0.0376 -s 2 -d 3 -p cbr -e 1000 -c 1 -i 2 -a 1 -x {0.0 3.0 -1 ------- null}
+ -t 0.04 -s 0 -d 1 -p cbr -e 1000 -c 1 -i 5 -a 1 -x {0.0 3.0 5 ------- null}
- -t 0.04 -s 0 -d 1 -p cbr -e 1000 -c 1 -i 5 -a 1 -x {0.0 3.0 5 ------- null}
h -t 0.04 -s 0 -d 1 -p cbr -e 1000 -c 1 -i 5 -a 1 -x {0.0 3.0 -1 ------- null}
r -t 0.0428 -s 0 -d 1 -p cbr -e 1000 -c 1 -i 4 -a 1 -x {0.0 3.0 4 ------- null}
+ -t 0.0428 -s 1 -d 2 -p cbr -e 1000 -c 1 -i 4 -a 1 -x {0.0 3.0 4 ------- null}
- -t 0.0428 -s 1 -d 2 -p cbr -e 1000 -c 1 -i 4 -a 1 -x {0.0 3.0 4 ------- null}
h -t 0.0428 -s 1 -d 2 -p cbr -e 1000 -c 1 -i 4 -a 1 -x {0.0 3.0 -1 ------- null}
r -t 0.0436 -s 2 -d 3 -p cbr -e 1000 -c 1 -i 1 -a 1 -x {0.0 3.0 1 ------- null}
r -t 0.0456 -s 1 -d 2 -p cbr -e 1000 -c 1 -i 3 -a 1 -x {0.0 3.0 3 ------- null}
+ -t 0.0456 -s 2 -d 3 -p cbr -e 1000 -c 1 -i 3 -a 1 -x {0.0 3.0 3 ------- null}
- -t 0.0456 -s 2 -d 3 -p cbr -e 1000 -c 1 -i 3 -a 1 -x {0.0 3.0 3 ------- null}
h -t 0.0456 -s 2 -d 3 -p cbr -e 1000 -c 1 -i 3 -a 1 -x {0.0 3.0 -1 ------- null}
+ -t 0.048 -s 0 -d 1 -p cbr -e 1000 -c 1 -i 6 -a 1 -x {0.0 3.0 6 ------- null}
- -t 0.048 -s 0 -d 1 -p cbr -e 1000 -c 1 -i 6 -a 1 -x {0.0 3.0 6 ------- null}
h -t 0.048 -s 0 -d 1 -p cbr -e 1000 -c 1 -i 6 -a 1 -x {0.0 3.0 -1 ------- null}
r -t 0.0508 -s 0 -d 1 -p cbr -e 1000 -c 1 -i 5 -a 1 -x {0.0 3.0 5 ------- null}
+ -t 0.0508 -s 1 -d 2 -p cbr -e 1000 -c 1 -i 5 -a 1 -x {0.0 3.0 5 ------- null}
- -t 0.0508 -s 1 -d 2 -p cbr -e 1000 -c 1 -i 5 -a 1 -x {0.0 3.0 5 ------- null}
h -t 0.0508 -s 1 -d 2 -p cbr -e 1000 -c 1 -i 5 -a 1 -x {0.0 3.0 -1 ------- null}
r -t 0.0516 -s 2 -d 3 -p cbr -e 1000 -c 1 -i 2 -a 1 -x {0.0 3.0 2 ------- null}
r -t 0.0536 -s 1 -d 2 -p cbr -e 1000 -c 1 -i 4 -a 1 -x {0.0 3.0 4 ------- null}
+ -t 0.0536 -s 2 -d 3 -p cbr -e 1000 -c 1 -i 4 -a 1 -x {0.0 3.0 4 ------- null}
- -t 0.0536 -s 2 -d 3 -p cbr -e 1000 -c 1 -i 4 -a 1 -x {0.0 3.0 4 ------- null}
h -t 0.0536 -s 2 -d 3 -p cbr -e 1000 -c 1 -i 4 -a 1 -x {0.0 3.0 -1 ------- null}
+ -t 0.056 -s 0 -d 1 -p cbr -e 1000 -c 1 -i 7 -a 1 -x {0.0 3.0 7 ------- null}
- -t 0.056 -s 0 -d 1 -p cbr -e 1000 -c 1 -i 7 -a 1 -x {0.0 3.0 7 ------- null}
h -t 0.056 -s 0 -d 1 -p cbr -e 1000 -c 1 -i 7 -a 1 -x {0.0 3.0 -1 ------- null}
r -t 0.0588 -s 0 -d 1 -p cbr -e 1000 -c 1 -i 6 -a 1 -x {0.0 3.0 6 ------- null}
+ -t 0.0588 -s 1 -d 2 -p cbr -e 1000 -c 1 -i 6 -a 1 -x {0.0 3.0 6 ------- null}
- -t 0.0588 -s 1 -d 2 -p cbr -e 1000 -c 1 -i 6 -a 1 -x {0.0 3.0 6 ------- null}
h -t 0.0588 -s 1 -d 2 -p cbr -e 1000 -c 1 -i 6 -a 1 -x {0.0 3.0 -1 ------- null}
r -t 0.0596 -s 2 -d 3 -p cbr -e 1000 -c 1 -i 3 -a 1 -x {0.0 3.0 3 ------- null}
r -t 0.0616 -s 1 -d 2 -p cbr -e 1000 -c 1 -i 5 -a 1 -x {0.0 3.0 5 ------- null}
+ -t 0.0616 -s 2 -d 3 -p cbr -e 1000 -c 1 -i 5 -a 1 -x {0.0 3.0 5 ------- null}
- -t 0.0616 -s 2 -d 3 -p cbr -e 1000 -c 1 -i 5 -a 1 -x {0.0 3.0 5 ------- null}
h -t 0.0616 -s 2 -d 3 -p cbr -e 1000 -c 1 -i 5 -a 1 -x {0.0 3.0 -1 ------- null}
+ -t 0.064 -s 0 -d 1 -p cbr -e 1000 -c 1 -i 8 -a 1 -x {0.0 3.0 8 ------- null}
- -t 0.064 -s 0 -d 1 -p cbr -e 1000 -c 1 -i 8 -a 1 -x {0.0 3.0 8 ------- null}
h -t 0.064 -s 0 -d 1 -p cbr -e 1000 -c 1 -i 8 -a 1 -x {0.0 3.0 -1 ------- null}
r -t 0.0668 -s 0 -d 1 -p cbr -e 1000 -c 1 -i 7 -a 1 -x {0.0 3.0 7 ------- null}
+ -t 0.0668 -s 1 -d 2 -p cbr -e 1000 -c 1 -i 7 -a 1 -x {0.0 3.0 7 ------- null}
- -t 0.0668 -s 1 -d 2 -p cbr -e 1000 -c 1 -i 7 -a 1 -x {0.0 3.0 7 ------- null}
h -t 0.0668 -s 1 -d 2 -p cbr -e 1000 -c 1 -i 7 -a 1 -x {0.0 3.0 -1 ------- null}
r -t 0.0676 -s 2 -d 3 -p cbr -e 1000 -c 1 -i 4 -a 1 -x {0.0 3.0 4 ------- null}
r -t 0.0696 -s 1 -d 2 -p cbr -e 1000 -c 1 -i 6 -a 1 -x {0.0 3.0 6 ------- null}
+ -t 0.0696 -s 2 -d 3 -p cbr -e 1000 -c 1 -i 6 -a 1 -x {0.0 3.0 6 ------- null}
- -t 0.0696 -s 2 -d 3 -p cbr -e 1000 -c 1 -i 6 -a 1 -x {0.0 3.0 6 ------- null}
h -t 0.0696 -s 2 -d 3 -p cbr -e 1000 -c 1 -i 6 -a 1 -x {0.0 3.0 -1 ------- null}
+ -t 0.072 -s 0 -d 1 -p cbr -e 1000 -c 1 -i 9 -a 1 -x {0.0 3.0 9 ------- null}
- -t 0.072 -s 0 -d 1 -p cbr -e 1000 -c 1 -i 9 -a 1 -x {0.0 3.0 9 ------- null}
h -t 0.072 -s 0 -d 1 -p cbr -e 1000 -c 1 -i 9 -a 1 -x {0.0 3.0 -1 ------- null}
r -t 0.0748 -s 0 -d 1 -p cbr -e 1000 -c 1 -i 8 -a 1 -x {0.0 3.0 8 ------- null}
+ -t 0.0748 -s 1 -d 2 -p cbr -e 1000 -c 1 -i 8 -a 1 -x {0.0 3.0 8 ------- null}
- -t 0.0748 -s 1 -d 2 -p cbr -e 1000 -c 1 -i 8 -a 1 -x {0.0 3.0 8 ------- null}
h -t 0.0748 -s 1 -d 2 -p cbr -e 1000 -c 1 -i 8 -a 1 -x {0.0 3.0 -1 ------- null}
r -t 0.0756 -s 2 -d 3 -p cbr -e 1000 -c 1 -i 5 -a 1 -x {0.0 3.0 5 ------- null}
r -t 0.0776 -s 1 -d 2 -p cbr -e 1000 -c 1 -i 7 -a 1 -x {0.0 3.0 7 ------- null}
+ -t 0.0776 -s 2 -d 3 -p cbr -e 1000 -c 1 -i 7 -a 1 -x {0.0 3.0 7 ------- null}
- -t 0.0776 -s 2 -d 3 -p cbr -e 1000 -c 1 -i 7 -a 1 -x {0.0 3.0 7 ------- null}
h -t 0.0776 -s 2 -d 3 -p cbr -e 1000 -c 1 -i 7 -a 1 -x {0.0 3.0 -1 ------- null}
+ -t 0.08 -s 0 -d 1 -p cbr -e 1000 -c 1 -i 10 -a 1 -x {0.0 3.0 10 ------- null}
- -t 0.08 -s 0 -d 1 -p cbr -e 1000 -c 1 -i 10 -a 1 -x {0.0 3.0 10 ------- null}
h -t 0.08 -s 0 -d 1 -p cbr -e 1000 -c 1 -i 10 -a 1 -x {0.0 3.0 -1 ------- null}
r -t 0.0828 -s 0 -d 1 -p cbr -e 1000 -c 1 -i 9 -a 1 -x {0.0 3.0 9 ------- null}
+ -t 0.0828 -s 1 -d 2 -p cbr -e 1000 -c 1 -i 9 -a 1 -x {0.0 3.0 9 ------- null}
- -t 0.0828 -s 1 -d 2 -p cbr -e 1000 -c 1 -i 9 -a 1 -x {0.0 3.0 9 ------- null}
h -t 0.0828 -s 1 -d 2 -p cbr -e 1000 -c 1 -i 9 -a 1 -x {0.0 3.0 -1 ------- null}
r -t 0.0836 -s 2 -d 3 -p cbr -e 1000 -c 1 -i 6 -a 1 -x {0.0 3.0 6 ------- null}
r -t 0.0856 -s 1 -d 2 -p cbr -e 1000 -c 1 -i 8 -a 1 -x {0.0 3.0 8 ------- null}
+ -t 0.0856 -s 2 -d 3 -p cbr -e 1000 -c 1 -i 8 -a 1 -x {0.0 3.0 8 ------- null}
- -t 0.0856 -s 2 -d 3 -p cbr -e 1000 -c 1 -i 8 -a 1 -x {0.0 3.0 8 ------- null}
h -t 0.0856 -s 2 -d 3 -p cbr -e 1000 -c 1 -i 8 -a 1 -x {0.0 3.0 -1 ------- null}
+ -t 0.088 -s 0 -d 1 -p cbr -e 1000 -c 1 -i 11 -a 1 -x {0.0 3.0 11 ------- null}
- -t 0.088 -s 0 -d 1 -p cbr -e 1000 -c 1 -i 11 -a 1 -x {0.0 3.0 11 ------- null}
h -t 0.088 -s 0 -d 1 -p cbr -e 1000 -c 1 -i 11 -a 1 -x {0.0 3.0 -1 ------- null}
r -t 0.0908 -s 0 -d 1 -p cbr -e 1000 -c 1 -i 10 -a 1 -x {0.0 3.0 10 ------- null}
+ -t 0.0908 -s 1 -d 2 -p cbr -e 1000 -c 1 -i 10 -a 1 -x {0.0 3.0 10 ------- null}
- -t 0.0908 -s 1 -d 2 -p cbr -e 1000 -c 1 -i 10 -a 1 -x {0.0 3.0 10 ------- null}
h -t 0.0908 -s 1 -d 2 -p cbr -e 1000 -c 1 -i 10 -a 1 -x {0.0 3.0 -1 ------- null}
r -t 0.0916 -s 2 -d 3 -p cbr -e 1000 -c 1 -i 7 -a 1 -x {0.0 3.0 7 ------- null}
r -t 0.0936 -s 1 -d 2 -p cbr -e 1000 -c 1 -i 9 -a 1 -x {0.0 3.0 9 ------- null}
+ -t 0.0936 -s 2 -d 3 -p cbr -e 1000 -c 1 -i 9 -a 1 -x {0.0 3.0 9 ------- null}
- -t 0.0936 -s 2 -d 3 -p cbr -e 1000 -c 1 -i 9 -a 1 -x {0.0 3.0 9 ------- null}
h -t 0.0936 -s 2 -d 3 -p cbr -e 1000 -c 1 -i 9 -a 1 -x {0.0 3.0 -1 ------- null}
+ -t 0.096 -s 0 -d 1 -p cbr -e 1000 -c 1 -i 12 -a 1 -x {0.0 3.0 12 ------- null}
- -t 0.096 -s 0 -d 1 -p cbr -e 1000 -c 1 -i 12 -a 1 -x {0.0 3.0 12 ------- null}
h -t 0.096 -s 0 -d 1 -p cbr -e 1000 -c 1 -i 12 -a 1 -x {0.0 3.0 -1 ------- null}
r -t 0.0988 -s 0 -d 1 -p cbr -e 1000 -c 1 -i 11 -a 1 -x {0.0 3.0 11 ------- null}
+ -t 0.0988 -s 1 -d 2 -p cbr -e 1000 -c 1 -i 11 -a 1 -x {0.0 3.0 11 ------- null}
- -t 0.0988 -s 1 -d 2 -p cbr -e 1000 -c 1 -i 11 -a 1 -x {0.0 3.0 11 ------- null}
h -t 0.0988 -s 1 -d 2 -p cbr -e 1000 -c 1 -i 11 -a 1 -x {0.0 3.0 -1 ------- null}
r -t 0.0996 -s 2 -d 3 -p cbr -e 1000 -c 1 -i 8 -a 1 -x {0.0 3.0 8 ------- null}
+ -t 0.1 -s 6 -d 1 -p cbr -e 1000 -c 2 -i 13 -a 2 -x {6.0 7.0 0 ------- null}
- -t 0.1 -s 6 -d 1 -p cbr -e 1000 -c 2 -i 13 -a 2 -x {6.0 7.0 0 ------- null}
h -t 0.1 -s 6 -d 1 -p cbr -e 1000 -c 2 -i 13 -a 2 -x {6.0 7.0 -1 ------- null}
r -t 0.1016 -s 1 -d 2 -p cbr -e 1000 -c 1 -i 10 -a 1 -x {0.0 3.0 10 ------- null}
+ -t 0.1016 -s 2 -d 3 -p cbr -e 1000 -c 1 -i 10 -a 1 -x {0.0 3.0 10 ------- null}
- -t 0.1016 -s 2 -d 3 -p cbr -e 1000 -c 1 -i 10 -a 1 -x {0.0 3.0 10 ------- null}
h -t 0.1016 -s 2 -d 3 -p cbr -e 1000 -c 1 -i 10 -a 1 -x {0.0 3.0 -1 ------- null}
+ -t 0.104 -s 0 -d 1 -p cbr -e 1000 -c 1 -i 14 -a 1 -x {0.0 3.0 13 ------- null}
- -t 0.104 -s 0 -d 1 -p cbr -e 1000 -c 1 -i 14 -a 1 -x {0.0 3.0 13 ------- null}
h -t 0.104 -s 0 -d 1 -p cbr -e 1000 -c 1 -i 14 -a 1 -x {0.0 3.0 -1 ------- null}
r -t 0.1068 -s 0 -d 1 -p cbr -e 1000 -c 1 -i 12 -a 1 -x {0.0 3.0 12 ------- null}
+ -t 0.1068 -s 1 -d 2 -p cbr -e 1000 -c 1 -i 12 -a 1 -x {0.0 3.0 12 ------- null}
- -t 0.1068 -s 1 -d 2 -p cbr -e 1000 -c 1 -i 12 -a 1 -x {0.0 3.0 12 ------- null}
h -t 0.1068 -s 1 -d 2 -p cbr -e 1000 -c 1 -i 12 -a 1 -x {0.0 3.0 -1 ------- null}
r -t 0.1076 -s 2 -d 3 -p cbr -e 1000 -c 1 -i 9 -a 1 -x {0.0 3.0 9 ------- null}
+ -t 0.108 -s 6 -d 1 -p cbr -e 1000 -c 2 -i 15 -a 2 -x {6.0 7.0 1 ------- null}
- -t 0.108 -s 6 -d 1 -p cbr -e 1000 -c 2 -i 15 -a 2 -x {6.0 7.0 1 ------- null}
h -t 0.108 -s 6 -d 1 -p cbr -e 1000 -c 2 -i 15 -a 2 -x {6.0 7.0 -1 ------- null}
r -t 0.1096 -s 1 -d 2 -p cbr -e 1000 -c 1 -i 11 -a 1 -x {0.0 3.0 11 ------- null}
+ -t 0.1096 -s 2 -d 3 -p cbr -e 1000 -c 1 -i 11 -a 1 -x {0.0 3.0 11 ------- null}
- -t 0.1096 -s 2 -d 3 -p cbr -e 1000 -c 1 -i 11 -a 1 -x {0.0 3.0 11 ------- null}
h -t 0.1096 -s 2 -d 3 -p cbr -e 1000 -c 1 -i 11 -a 1 -x {0.0 3.0 -1 ------- null}
r -t 0.1108 -s 6 -d 1 -p cbr -e 1000 -c 2 -i 13 -a 2 -x {6.0 7.0 0 ------- null}
+ -t 0.1108 -s 1 -d 2 -p cbr -e 1000 -c 2 -i 13 -a 2 -x {6.0 7.0 0 ------- null}
- -t 0.1108 -s 1 -d 2 -p cbr -e 1000 -c 2 -i 13 -a 2 -x {6.0 7.0 0 ------- null}
h -t 0.1108 -s 1 -d 2 -p cbr -e 1000 -c 2 -i 13 -a 2 -x {6.0 7.0 -1 ------- null}
+ -t 0.112 -s 0 -d 1 -p cbr -e 1000 -c 1 -i 16 -a 1 -x {0.0 3.0 14 ------- null}
- -t 0.112 -s 0 -d 1 -p cbr -e 1000 -c 1 -i 16 -a 1 -x {0.0 3.0 14 ------- null}
h -t 0.112 -s 0 -d 1 -p cbr -e 1000 -c 1 -i 16 -a 1 -x {0.0 3.0 -1 ------- null}
r -t 0.1148 -s 0 -d 1 -p cbr -e 1000 -c 1 -i 14 -a 1 -x {0.0 3.0 13 ------- null}
+ -t 0.1148 -s 1 -d 2 -p cbr -e 1000 -c 1 -i 14 -a 1 -x {0.0 3.0 13 ------- null}
- -t 0.1148 -s 1 -d 2 -p cbr -e 1000 -c 1 -i 14 -a 1 -x {0.0 3.0 13 ------- null}
h -t 0.1148 -s 1 -d 2 -p cbr -e 1000 -c 1 -i 14 -a 1 -x {0.0 3.0 -1 ------- null}
r -t 0.1156 -s 2 -d 3 -p cbr -e 1000 -c 1 -i 10 -a 1 -x {0.0 3.0 10 ------- null}
+ -t 0.116 -s 6 -d 1 -p cbr -e 1000 -c 2 -i 17 -a 2 -x {6.0 7.0 2 ------- null}
- -t 0.116 -s 6 -d 1 -p cbr -e 1000 -c 2 -i 17 -a 2 -x {6.0 7.0 2 ------- null}
h -t 0.116 -s 6 -d 1 -p cbr -e 1000 -c 2 -i 17 -a 2 -x {6.0 7.0 -1 ------- null}
r -t 0.1176 -s 1 -d 2 -p cbr -e 1000 -c 1 -i 12 -a 1 -x {0.0 3.0 12 ------- null}
+ -t 0.1176 -s 2 -d 3 -p cbr -e 1000 -c 1 -i 12 -a 1 -x {0.0 3.0 12 ------- null}
- -t 0.1176 -s 2 -d 3 -p cbr -e 1000 -c 1 -i 12 -a 1 -x {0.0 3.0 12 ------- null}
h -t 0.1176 -s 2 -d 3 -p cbr -e 1000 -c 1 -i 12 -a 1 -x {0.0 3.0 -1 ------- null}
r -t 0.1188 -s 6 -d 1 -p cbr -e 1000 -c 2 -i 15 -a 2 -x {6.0 7.0 1 ------- null}
+ -t 0.1188 -s 1 -d 2 -p cbr -e 1000 -c 2 -i 15 -a 2 -x {6.0 7.0 1 ------- null}
- -t 0.1188 -s 1 -d 2 -p cbr -e 1000 -c 2 -i 15 -a 2 -x {6.0 7.0 1 ------- null}
h -t 0.1188 -s 1 -d 2 -p cbr -e 1000 -c 2 -i 15 -a 2 -x {6.0 7.0 -1 ------- null}
+ -t 0.12 -s 0 -d 1 -p cbr -e 1000 -c 1 -i 18 -a 1 -x {0.0 3.0 15 ------- null}
- -t 0.12 -s 0 -d 1 -p cbr -e 1000 -c 1 -i 18 -a 1 -x {0.0 3.0 15 ------- null}
h -t 0.12 -s 0 -d 1 -p cbr -e 1000 -c 1 -i 18 -a 1 -x {0.0 3.0 -1 ------- null}
r -t 0.1216 -s 1 -d 2 -p cbr -e 1000 -c 2 -i 13 -a 2 -x {6.0 7.0 0 ------- null}
+ -t 0.1216 -s 2 -d 7 -p cbr -e 1000 -c 2 -i 13 -a 2 -x {6.0 7.0 0 ------- null}
- -t 0.1216 -s 2 -d 7 -p cbr -e 1000 -c 2 -i 13 -a 2 -x {6.0 7.0 0 ------- null}
h -t 0.1216 -s 2 -d 7 -p cbr -e 1000 -c 2 -i 13 -a 2 -x {6.0 7.0 -1 ------- null}
r -t 0.1228 -s 0 -d 1 -p cbr -e 1000 -c 1 -i 16 -a 1 -x {0.0 3.0 14 ------- null}
+ -t 0.1228 -s 1 -d 2 -p cbr -e 1000 -c 1 -i 16 -a 1 -x {0.0 3.0 14 ------- null}
- -t 0.1228 -s 1 -d 2 -p cbr -e 1000 -c 1 -i 16 -a 1 -x {0.0 3.0 14 ------- null}
h -t 0.1228 -s 1 -d 2 -p cbr -e 1000 -c 1 -i 16 -a 1 -x {0.0 3.0 -1 ------- null}
r -t 0.1236 -s 2 -d 3 -p cbr -e 1000 -c 1 -i 11 -a 1 -x {0.0 3.0 11 ------- null}
+ -t 0.124 -s 6 -d 1 -p cbr -e 1000 -c 2 -i 19 -a 2 -x {6.0 7.0 3 ------- null}
- -t 0.124 -s 6 -d 1 -p cbr -e 1000 -c 2 -i 19 -a 2 -x {6.0 7.0 3 ------- null}
h -t 0.124 -s 6 -d 1 -p cbr -e 1000 -c 2 -i 19 -a 2 -x {6.0 7.0 -1 ------- null}
r -t 0.1256 -s 1 -d 2 -p cbr -e 1000 -c 1 -i 14 -a 1 -x {0.0 3.0 13 ------- null}
+ -t 0.1256 -s 2 -d 3 -p cbr -e 1000 -c 1 -i 14 -a 1 -x {0.0 3.0 13 ------- null}
- -t 0.1256 -s 2 -d 3 -p cbr -e 1000 -c 1 -i 14 -a 1 -x {0.0 3.0 13 ------- null}
h -t 0.1256 -s 2 -d 3 -p cbr -e 1000 -c 1 -i 14 -a 1 -x {0.0 3.0 -1 ------- null}
r -t 0.1268 -s 6 -d 1 -p cbr -e 1000 -c 2 -i 17 -a 2 -x {6.0 7.0 2 ------- null}
+ -t 0.1268 -s 1 -d 2 -p cbr -e 1000 -c 2 -i 17 -a 2 -x {6.0 7.0 2 ------- null}
- -t 0.1268 -s 1 -d 2 -p cbr -e 1000 -c 2 -i 17 -a 2 -x {6.0 7.0 2 ------- null}
h -t 0.1268 -s 1 -d 2 -p cbr -e 1000 -c 2 -i 17 -a 2 -x {6.0 7.0 -1 ------- null}
+ -t 0.128 -s 0 -d 1 -p cbr -e 1000 -c 1 -i 20 -a 1 -x {0.0 3.0 16 ------- null}
- -t 0.128 -s 0 -d 1 -p cbr -e 1000 -c 1 -i 20 -a 1 -x {0.0 3.0 16 ------- null}
h -t 0.128 -s 0 -d 1 -p cbr -e 1000 -c 1 -i 20 -a 1 -x {0.0 3.0 -1 ------- null}
r -t 0.1296 -s 1 -d 2 -p cbr -e 1000 -c 2 -i 15 -a 2 -x {6.0 7.0 1 ------- null}
+ -t 0.1296 -s 2 -d 7 -p cbr -e 1000 -c 2 -i 15 -a 2 -x {6.0 7.0 1 ------- null}
- -t 0.1296 -s 2 -d 7 -p cbr -e 1000 -c 2 -i 15 -a 2 -x {6.0 7.0 1 ------- null}
h -t 0.1296 -s 2 -d 7 -p cbr -e 1000 -c 2 -i 15 -a 2 -x {6.0 7.0 -1 ------- null}
r -t 0.1308 -s 0 -d 1 -p cbr -e 1000 -c 1 -i 18 -a 1 -x {0.0 3.0 15 ------- null}
+ -t 0.1308 -s 1 -d 2 -p cbr -e 1000 -c 1 -i 18 -a 1 -x {0.0 3.0 15 ------- null}
- -t 0.1308 -s 1 -d 2 -p cbr -e 1000 -c 1 -i 18 -a 1 -x {0.0 3.0 15 ------- null}
h -t 0.1308 -s 1 -d 2 -p cbr -e 1000 -c 1 -i 18 -a 1 -x {0.0 3.0 -1 ------- null}
r -t 0.1316 -s 2 -d 3 -p cbr -e 1000 -c 1 -i 12 -a 1 -x {0.0 3.0 12 ------- null}
+ -t 0.132 -s 6 -d 1 -p cbr -e 1000 -c 2 -i 21 -a 2 -x {6.0 7.0 4 ------- null}
- -t 0.132 -s 6 -d 1 -p cbr -e 1000 -c 2 -i 21 -a 2 -x {6.0 7.0 4 ------- null}
h -t 0.132 -s 6 -d 1 -p cbr -e 1000 -c 2 -i 21 -a 2 -x {6.0 7.0 -1 ------- null}
r -t 0.1324 -s 2 -d 7 -p cbr -e 1000 -c 2 -i 13 -a 2 -x {6.0 7.0 0 ------- null}
r -t 0.1336 -s 1 -d 2 -p cbr -e 1000 -c 1 -i 16 -a 1 -x {0.0 3.0 14 ------- null}
+ -t 0.1336 -s 2 -d 3 -p cbr -e 1000 -c 1 -i 16 -a 1 -x {0.0 3.0 14 ------- null}
- -t 0.1336 -s 2 -d 3 -p cbr -e 1000 -c 1 -i 16 -a 1 -x {0.0 3.0 14 ------- null}
h -t 0.1336 -s 2 -d 3 -p cbr -e 1000 -c 1 -i 16 -a 1 -x {0.0 3.0 -1 ------- null}
r -t 0.1348 -s 6 -d 1 -p cbr -e 1000 -c 2 -i 19 -a 2 -x {6.0 7.0 3 ------- null}
+ -t 0.1348 -s 1 -d 2 -p cbr -e 1000 -c 2 -i 19 -a 2 -x {6.0 7.0 3 ------- null}
- -t 0.1348 -s 1 -d 2 -p cbr -e 1000 -c 2 -i 19 -a 2 -x {6.0 7.0 3 ------- null}
h -t 0.1348 -s 1 -d 2 -p cbr -e 1000 -c 2 -i 19 -a 2 -x {6.0 7.0 -1 ------- null}
+ -t 0.136 -s 0 -d 1 -p cbr -e 1000 -c 1 -i 22 -a 1 -x {0.0 3.0 17 ------- null}
- -t 0.136 -s 0 -d 1 -p cbr -e 1000 -c 1 -i 22 -a 1 -x {0.0 3.0 17 ------- null}
h -t 0.136 -s 0 -d 1 -p cbr -e 1000 -c 1 -i 22 -a 1 -x {0.0 3.0 -1 ------- null}
r -t 0.1376 -s 1 -d 2 -p cbr -e 1000 -c 2 -i 17 -a 2 -x {6.0 7.0 2 ------- null}
+ -t 0.1376 -s 2 -d 7 -p cbr -e 1000 -c 2 -i 17 -a 2 -x {6.0 7.0 2 ------- null}
- -t 0.1376 -s 2 -d 7 -p cbr -e 1000 -c 2 -i 17 -a 2 -x {6.0 7.0 2 ------- null}
h -t 0.1376 -s 2 -d 7 -p cbr -e 1000 -c 2 -i 17 -a 2 -x {6.0 7.0 -1 ------- null}
r -t 0.1388 -s 0 -d 1 -p cbr -e 1000 -c 1 -i 20 -a 1 -x {0.0 3.0 16 ------- null}
+ -t 0.1388 -s 1 -d 2 -p cbr -e 1000 -c 1 -i 20 -a 1 -x {0.0 3.0 16 ------- null}
- -t 0.1388 -s 1 -d 2 -p cbr -e 1000 -c 1 -i 20 -a 1 -x {0.0 3.0 16 ------- null}
h -t 0.1388 -s 1 -d 2 -p cbr -e 1000 -c 1 -i 20 -a 1 -x {0.0 3.0 -1 ------- null}
r -t 0.1396 -s 2 -d 3 -p cbr -e 1000 -c 1 -i 14 -a 1 -x {0.0 3.0 13 ------- null}
+ -t 0.14 -s 6 -d 1 -p cbr -e 1000 -c 2 -i 23 -a 2 -x {6.0 7.0 5 ------- null}
- -t 0.14 -s 6 -d 1 -p cbr -e 1000 -c 2 -i 23 -a 2 -x {6.0 7.0 5 ------- null}
h -t 0.14 -s 6 -d 1 -p cbr -e 1000 -c 2 -i 23 -a 2 -x {6.0 7.0 -1 ------- null}
r -t 0.1404 -s 2 -d 7 -p cbr -e 1000 -c 2 -i 15 -a 2 -x {6.0 7.0 1 ------- null}
r -t 0.1416 -s 1 -d 2 -p cbr -e 1000 -c 1 -i 18 -a 1 -x {0.0 3.0 15 ------- null}
+ -t 0.1416 -s 2 -d 3 -p cbr -e 1000 -c 1 -i 18 -a 1 -x {0.0 3.0 15 ------- null}
- -t 0.1416 -s 2 -d 3 -p cbr -e 1000 -c 1 -i 18 -a 1 -x {0.0 3.0 15 ------- null}
h -t 0.1416 -s 2 -d 3 -p cbr -e 1000 -c 1 -i 18 -a 1 -x {0.0 3.0 -1 ------- null}
r -t 0.1428 -s 6 -d 1 -p cbr -e 1000 -c 2 -i 21 -a 2 -x {6.0 7.0 4 ------- null}
+ -t 0.1428 -s 1 -d 2 -p cbr -e 1000 -c 2 -i 21 -a 2 -x {6.0 7.0 4 ------- null}
- -t 0.1428 -s 1 -d 2 -p cbr -e 1000 -c 2 -i 21 -a 2 -x {6.0 7.0 4 ------- null}
h -t 0.1428 -s 1 -d 2 -p cbr -e 1000 -c 2 -i 21 -a 2 -x {6.0 7.0 -1 ------- null}
+ -t 0.144 -s 0 -d 1 -p cbr -e 1000 -c 1 -i 24 -a 1 -x {0.0 3.0 18 ------- null}
- -t 0.144 -s 0 -d 1 -p cbr -e 1000 -c 1 -i 24 -a 1 -x {0.0 3.0 18 ------- null}
h -t 0.144 -s 0 -d 1 -p cbr -e 1000 -c 1 -i 24 -a 1 -x {0.0 3.0 -1 ------- null}
r -t 0.1456 -s 1 -d 2 -p cbr -e 1000 -c 2 -i 19 -a 2 -x {6.0 7.0 3 ------- null}
+ -t 0.1456 -s 2 -d 7 -p cbr -e 1000 -c 2 -i 19 -a 2 -x {6.0 7.0 3 ------- null}
- -t 0.1456 -s 2 -d 7 -p cbr -e 1000 -c 2 -i 19 -a 2 -x {6.0 7.0 3 ------- null}
h -t 0.1456 -s 2 -d 7 -p cbr -e 1000 -c 2 -i 19 -a 2 -x {6.0 7.0 -1 ------- null}
r -t 0.1468 -s 0 -d 1 -p cbr -e 1000 -c 1 -i 22 -a 1 -x {0.0 3.0 17 ------- null}
+ -t 0.1468 -s 1 -d 2 -p cbr -e 1000 -c 1 -i 22 -a 1 -x {0.0 3.0 17 ------- null}
- -t 0.1468 -s 1 -d 2 -p cbr -e 1000 -c 1 -i 22 -a 1 -x {0.0 3.0 17 ------- null}
h -t 0.1468 -s 1 -d 2 -p cbr -e 1000 -c 1 -i 22 -a 1 -x {0.0 3.0 -1 ------- null}
r -t 0.1476 -s 2 -d 3 -p cbr -e 1000 -c 1 -i 16 -a 1 -x {0.0 3.0 14 ------- null}
+ -t 0.148 -s 6 -d 1 -p cbr -e 1000 -c 2 -i 25 -a 2 -x {6.0 7.0 6 ------- null}
- -t 0.148 -s 6 -d 1 -p cbr -e 1000 -c 2 -i 25 -a 2 -x {6.0 7.0 6 ------- null}
h -t 0.148 -s 6 -d 1 -p cbr -e 1000 -c 2 -i 25 -a 2 -x {6.0 7.0 -1 ------- null}
r -t 0.1484 -s 2 -d 7 -p cbr -e 1000 -c 2 -i 17 -a 2 -x {6.0 7.0 2 ------- null}
r -t 0.1496 -s 1 -d 2 -p cbr -e 1000 -c 1 -i 20 -a 1 -x {0.0 3.0 16 ------- null}
+ -t 0.1496 -s 2 -d 3 -p cbr -e 1000 -c 1 -i 20 -a 1 -x {0.0 3.0 16 ------- null}
- -t 0.1496 -s 2 -d 3 -p cbr -e 1000 -c 1 -i 20 -a 1 -x {0.0 3.0 16 ------- null}
h -t 0.1496 -s 2 -d 3 -p cbr -e 1000 -c 1 -i 20 -a 1 -x {0.0 3.0 -1 ------- null}
r -t 0.1508 -s 6 -d 1 -p cbr -e 1000 -c 2 -i 23 -a 2 -x {6.0 7.0 5 ------- null}
+ -t 0.1508 -s 1 -d 2 -p cbr -e 1000 -c 2 -i 23 -a 2 -x {6.0 7.0 5 ------- null}
- -t 0.1508 -s 1 -d 2 -p cbr -e 1000 -c 2 -i 23 -a 2 -x {6.0 7.0 5 ------- null}
h -t 0.1508 -s 1 -d 2 -p cbr -e 1000 -c 2 -i 23 -a 2 -x {6.0 7.0 -1 ------- null}
+ -t 0.152 -s 0 -d 1 -p cbr -e 1000 -c 1 -i 26 -a 1 -x {0.0 3.0 19 ------- null}
- -t 0.152 -s 0 -d 1 -p cbr -e 1000 -c 1 -i 26 -a 1 -x {0.0 3.0 19 ------- null}
h -t 0.152 -s 0 -d 1 -p cbr -e 1000 -c 1 -i 26 -a 1 -x {0.0 3.0 -1 ------- null}
r -t 0.1536 -s 1 -d 2 -p cbr -e 1000 -c 2 -i 21 -a 2 -x {6.0 7.0 4 ------- null}
+ -t 0.1536 -s 2 -d 7 -p cbr -e 1000 -c 2 -i 21 -a 2 -x {6.0 7.0 4 ------- null}
- -t 0.1536 -s 2 -d 7 -p cbr -e 1000 -c 2 -i 21 -a 2 -x {6.0 7.0 4 ------- null}
h -t 0.1536 -s 2 -d 7 -p cbr -e 1000 -c 2 -i 21 -a 2 -x {6.0 7.0 -1 ------- null}
r -t 0.1548 -s 0 -d 1 -p cbr -e 1000 -c 1 -i 24 -a 1 -x {0.0 3.0 18 ------- null}
+ -t 0.1548 -s 1 -d 2 -p cbr -e 1000 -c 1 -i 24 -a 1 -x {0.0 3.0 18 ------- null}
- -t 0.1548 -s 1 -d 2 -p cbr -e 1000 -c 1 -i 24 -a 1 -x {0.0 3.0 18 ------- null}
h -t 0.1548 -s 1 -d 2 -p cbr -e 1000 -c 1 -i 24 -a 1 -x {0.0 3.0 -1 ------- null}
r -t 0.1556 -s 2 -d 3 -p cbr -e 1000 -c 1 -i 18 -a 1 -x {0.0 3.0 15 ------- null}
+ -t 0.156 -s 6 -d 1 -p cbr -e 1000 -c 2 -i 27 -a 2 -x {6.0 7.0 7 ------- null}
- -t 0.156 -s 6 -d 1 -p cbr -e 1000 -c 2 -i 27 -a 2 -x {6.0 7.0 7 ------- null}
h -t 0.156 -s 6 -d 1 -p cbr -e 1000 -c 2 -i 27 -a 2 -x {6.0 7.0 -1 ------- null}
r -t 0.1564 -s 2 -d 7 -p cbr -e 1000 -c 2 -i 19 -a 2 -x {6.0 7.0 3 ------- null}
r -t 0.1576 -s 1 -d 2 -p cbr -e 1000 -c 1 -i 22 -a 1 -x {0.0 3.0 17 ------- null}
+ -t 0.1576 -s 2 -d 3 -p cbr -e 1000 -c 1 -i 22 -a 1 -x {0.0 3.0 17 ------- null}
- -t 0.1576 -s 2 -d 3 -p cbr -e 1000 -c 1 -i 22 -a 1 -x {0.0 3.0 17 ------- null}
h -t 0.1576 -s 2 -d 3 -p cbr -e 1000 -c 1 -i 22 -a 1 -x {0.0 3.0 -1 ------- null}
r -t 0.1588 -s 6 -d 1 -p cbr -e 1000 -c 2 -i 25 -a 2 -x {6.0 7.0 6 ------- null}
+ -t 0.1588 -s 1 -d 2 -p cbr -e 1000 -c 2 -i 25 -a 2 -x {6.0 7.0 6 ------- null}
- -t 0.1588 -s 1 -d 2 -p cbr -e 1000 -c 2 -i 25 -a 2 -x {6.0 7.0 6 ------- null}
h -t 0.1588 -s 1 -d 2 -p cbr -e 1000 -c 2 -i 25 -a 2 -x {6.0 7.0 -1 ------- null}
+ -t 0.16 -s 0 -d 1 -p cbr -e 1000 -c 1 -i 28 -a 1 -x {0.0 3.0 20 ------- null}
- -t 0.16 -s 0 -d 1 -p cbr -e 1000 -c 1 -i 28 -a 1 -x {0.0 3.0 20 ------- null}
h -t 0.16 -s 0 -d 1 -p cbr -e 1000 -c 1 -i 28 -a 1 -x {0.0 3.0 -1 ------- null}
r -t 0.1616 -s 1 -d 2 -p cbr -e 1000 -c 2 -i 23 -a 2 -x {6.0 7.0 5 ------- null}
+ -t 0.1616 -s 2 -d 7 -p cbr -e 1000 -c 2 -i 23 -a 2 -x {6.0 7.0 5 ------- null}
- -t 0.1616 -s 2 -d 7 -p cbr -e 1000 -c 2 -i 23 -a 2 -x {6.0 7.0 5 ------- null}
h -t 0.1616 -s 2 -d 7 -p cbr -e 1000 -c 2 -i 23 -a 2 -x {6.0 7.0 -1 ------- null}
r -t 0.1628 -s 0 -d 1 -p cbr -e 1000 -c 1 -i 26 -a 1 -x {0.0 3.0 19 ------- null}
+ -t 0.1628 -s 1 -d 2 -p cbr -e 1000 -c 1 -i 26 -a 1 -x {0.0 3.0 19 ------- null}
- -t 0.1628 -s 1 -d 2 -p cbr -e 1000 -c 1 -i 26 -a 1 -x {0.0 3.0 19 ------- null}
h -t 0.1628 -s 1 -d 2 -p cbr -e 1000 -c 1 -i 26 -a 1 -x {0.0 3.0 -1 ------- null}
r -t 0.1636 -s 2 -d 3 -p cbr -e 1000 -c 1 -i 20 -a 1 -x {0.0 3.0 16 ------- null}
+ -t 0.164 -s 6 -d 1 -p cbr -e 1000 -c 2 -i 29 -a 2 -x {6.0 7.0 8 ------- null}
- -t 0.164 -s 6 -d 1 -p cbr -e 1000 -c 2 -i 29 -a 2 -x {6.0 7.0 8 ------- null}
h -t 0.164 -s 6 -d 1 -p cbr -e 1000 -c 2 -i 29 -a 2 -x {6.0 7.0 -1 ------- null}
r -t 0.1644 -s 2 -d 7 -p cbr -e 1000 -c 2 -i 21 -a 2 -x {6.0 7.0 4 ------- null}
r -t 0.1656 -s 1 -d 2 -p cbr -e 1000 -c 1 -i 24 -a 1 -x {0.0 3.0 18 ------- null}
+ -t 0.1656 -s 2 -d 3 -p cbr -e 1000 -c 1 -i 24 -a 1 -x {0.0 3.0 18 ------- null}
- -t 0.1656 -s 2 -d 3 -p cbr -e 1000 -c 1 -i 24 -a 1 -x {0.0 3.0 18 ------- null}
h -t 0.1656 -s 2 -d 3 -p cbr -e 1000 -c 1 -i 24 -a 1 -x {0.0 3.0 -1 ------- null}
r -t 0.1668 -s 6 -d 1 -p cbr -e 1000 -c 2 -i 27 -a 2 -x {6.0 7.0 7 ------- null}
+ -t 0.1668 -s 1 -d 2 -p cbr -e 1000 -c 2 -i 27 -a 2 -x {6.0 7.0 7 ------- null}
- -t 0.1668 -s 1 -d 2 -p cbr -e 1000 -c 2 -i 27 -a 2 -x {6.0 7.0 7 ------- null}
h -t 0.1668 -s 1 -d 2 -p cbr -e 1000 -c 2 -i 27 -a 2 -x {6.0 7.0 -1 ------- null}
+ -t 0.168 -s 0 -d 1 -p cbr -e 1000 -c 1 -i 30 -a 1 -x {0.0 3.0 21 ------- null}
- -t 0.168 -s 0 -d 1 -p cbr -e 1000 -c 1 -i 30 -a 1 -x {0.0 3.0 21 ------- null}
h -t 0.168 -s 0 -d 1 -p cbr -e 1000 -c 1 -i 30 -a 1 -x {0.0 3.0 -1 ------- null}
r -t 0.1696 -s 1 -d 2 -p cbr -e 1000 -c 2 -i 25 -a 2 -x {6.0 7.0 6 ------- null}
+ -t 0.1696 -s 2 -d 7 -p cbr -e 1000 -c 2 -i 25 -a 2 -x {6.0 7.0 6 ------- null}
- -t 0.1696 -s 2 -d 7 -p cbr -e 1000 -c 2 -i 25 -a 2 -x {6.0 7.0 6 ------- null}
h -t 0.1696 -s 2 -d 7 -p cbr -e 1000 -c 2 -i 25 -a 2 -x {6.0 7.0 -1 ------- null}
r -t 0.1708 -s 0 -d 1 -p cbr -e 1000 -c 1 -i 28 -a 1 -x {0.0 3.0 20 ------- null}
+ -t 0.1708 -s 1 -d 2 -p cbr -e 1000 -c 1 -i 28 -a 1 -x {0.0 3.0 20 ------- null}
- -t 0.1708 -s 1 -d 2 -p cbr -e 1000 -c 1 -i 28 -a 1 -x {0.0 3.0 20 ------- null}
h -t 0.1708 -s 1 -d 2 -p cbr -e 1000 -c 1 -i 28 -a 1 -x {0.0 3.0 -1 ------- null}
r -t 0.1716 -s 2 -d 3 -p cbr -e 1000 -c 1 -i 22 -a 1 -x {0.0 3.0 17 ------- null}
+ -t 0.172 -s 6 -d 1 -p cbr -e 1000 -c 2 -i 31 -a 2 -x {6.0 7.0 9 ------- null}
- -t 0.172 -s 6 -d 1 -p cbr -e 1000 -c 2 -i 31 -a 2 -x {6.0 7.0 9 ------- null}
h -t 0.172 -s 6 -d 1 -p cbr -e 1000 -c 2 -i 31 -a 2 -x {6.0 7.0 -1 ------- null}
r -t 0.1724 -s 2 -d 7 -p cbr -e 1000 -c 2 -i 23 -a 2 -x {6.0 7.0 5 ------- null}
r -t 0.1736 -s 1 -d 2 -p cbr -e 1000 -c 1 -i 26 -a 1 -x {0.0 3.0 19 ------- null}
+ -t 0.1736 -s 2 -d 3 -p cbr -e 1000 -c 1 -i 26 -a 1 -x {0.0 3.0 19 ------- null}
- -t 0.1736 -s 2 -d 3 -p cbr -e 1000 -c 1 -i 26 -a 1 -x {0.0 3.0 19 ------- null}
h -t 0.1736 -s 2 -d 3 -p cbr -e 1000 -c 1 -i 26 -a 1 -x {0.0 3.0 -1 ------- null}
r -t 0.1748 -s 6 -d 1 -p cbr -e 1000 -c 2 -i 29 -a 2 -x {6.0 7.0 8 ------- null}
+ -t 0.1748 -s 1 -d 2 -p cbr -e 1000 -c 2 -i 29 -a 2 -x {6.0 7.0 8 ------- null}
- -t 0.1748 -s 1 -d 2 -p cbr -e 1000 -c 2 -i 29 -a 2 -x {6.0 7.0 8 ------- null}
h -t 0.1748 -s 1 -d 2 -p cbr -e 1000 -c 2 -i 29 -a 2 -x {6.0 7.0 -1 ------- null}
+ -t 0.176 -s 0 -d 1 -p cbr -e 1000 -c 1 -i 32 -a 1 -x {0.0 3.0 22 ------- null}
- -t 0.176 -s 0 -d 1 -p cbr -e 1000 -c 1 -i 32 -a 1 -x {0.0 3.0 22 ------- null}
h -t 0.176 -s 0 -d 1 -p cbr -e 1000 -c 1 -i 32 -a 1 -x {0.0 3.0 -1 ------- null}
r -t 0.1776 -s 1 -d 2 -p cbr -e 1000 -c 2 -i 27 -a 2 -x {6.0 7.0 7 ------- null}
+ -t 0.1776 -s 2 -d 7 -p cbr -e 1000 -c 2 -i 27 -a 2 -x {6.0 7.0 7 ------- null}
- -t 0.1776 -s 2 -d 7 -p cbr -e 1000 -c 2 -i 27 -a 2 -x {6.0 7.0 7 ------- null}
h -t 0.1776 -s 2 -d 7 -p cbr -e 1000 -c 2 -i 27 -a 2 -x {6.0 7.0 -1 ------- null}
r -t 0.1788 -s 0 -d 1 -p cbr -e 1000 -c 1 -i 30 -a 1 -x {0.0 3.0 21 ------- null}
+ -t 0.1788 -s 1 -d 2 -p cbr -e 1000 -c 1 -i 30 -a 1 -x {0.0 3.0 21 ------- null}
- -t 0.1788 -s 1 -d 2 -p cbr -e 1000 -c 1 -i 30 -a 1 -x {0.0 3.0 21 ------- null}
h -t 0.1788 -s 1 -d 2 -p cbr -e 1000 -c 1 -i 30 -a 1 -x {0.0 3.0 -1 ------- null}
r -t 0.1796 -s 2 -d 3 -p cbr -e 1000 -c 1 -i 24 -a 1 -x {0.0 3.0 18 ------- null}